------------------------------------------------------------
          Invoking FHI-aims ...

          When using FHI-aims, please cite the following reference:

            Volker Blum, Ralf Gehrke, Felix Hanke, Paula Havu,
            Ville Havu, Xinguo Ren, Karsten Reuter, and Matthias Scheffler,
            'Ab Initio Molecular Simulations with Numeric Atom-Centered Orbitals',
            Computer Physics Communications 180, 2175-2196 (2009)

          In addition, many other developments in FHI-aims are likely important for
          your particular application. A partial list of references is given at the end of
          this file. Thank you for giving credit to the authors of these developments.

          For any questions about FHI-aims, please visit our slack channel at

            https://fhi-aims.slack.com

          and our main development and support site at

            https://aims-git.rz-berlin.mpg.de .

          The latter site, in particular, has a wiki to collect information, as well
          as an issue tracker to log discussions, suggest improvements, and report issues
          or bugs. https://aims-git.rz-berlin.mpg.de is also the main development site
          of the project and all new and updated code versions can be obtained there.
          Please send an email to aims-coordinators@fhi-berlin.mpg.de and we will add
          you to these sites. They are for you and everyone is welcome there.

------------------------------------------------------------



  Date     :  20210628, Time     :  160451.516
  Time zero on CPU 1             :   0.568900000000000E-01  s.
  Internal wall clock time zero  :           394128291.516  s.

  FHI-aims created a unique identifier for this run for later identification
  aims_uuid : A528FA7F-E800-49D4-A31E-52E786281A07

  Build configuration of the current instance of FHI-aims
  -------------------------------------------------------
  FHI-aims version      : 210513
  Commit number         : 300bfe3f4
  CMake host system     : Linux-4.12.14-122.63-default
  CMake version         : 3.5.2
  Fortran compiler      : /mpcdf/soft/SLE_12/packages/x86_64/intel_parallel_studio/2020.1/compilers_and_libraries_2020.1.217/linux/mpi/intel64/bin/mpiifort (Intel) version 19.1.0.20200306
  Fortran compiler flags: -O3 -ip -fp-model precise
  C compiler            : /mpcdf/soft/SLE_12/packages/x86_64/intel/19.1.1/bin/icc (Intel) version 19.1.0.20200306
  C compiler flags      : -O3 -ip -fp-model precise -std=gnu99
  C++ compiler          : /mpcdf/soft/SLE_12/packages/x86_64/intel/19.1.1/bin/icpc (Intel) version 19.1.0.20200306
  C++ compiler flags    : -O3 -ip -fp-model precise -std=gnu99
  Using MPI
  Using ScaLAPACK
  Using LibXC
  Using i-PI
  Using RLSY
  Linking against: /mpcdf/soft/SLE_12/packages/x86_64/intel_parallel_studio/2020.1/mkl/lib/intel64/libmkl_intel_lp64.so
                   /mpcdf/soft/SLE_12/packages/x86_64/intel_parallel_studio/2020.1/mkl/lib/intel64/libmkl_sequential.so
                   /mpcdf/soft/SLE_12/packages/x86_64/intel_parallel_studio/2020.1/mkl/lib/intel64/libmkl_core.so
                   /mpcdf/soft/SLE_12/packages/x86_64/intel_parallel_studio/2020.1/mkl/lib/intel64/libmkl_blacs_intelmpi_lp64.so
                   /mpcdf/soft/SLE_12/packages/x86_64/intel_parallel_studio/2020.1/mkl/lib/intel64/libmkl_scalapack_lp64.so

  Using       40 parallel tasks.
  Task        0 on host co2258 reporting.
  Task        1 on host co2258 reporting.
  Task        2 on host co2258 reporting.
  Task        3 on host co2258 reporting.
  Task        4 on host co2258 reporting.
  Task        5 on host co2258 reporting.
  Task        6 on host co2258 reporting.
  Task        7 on host co2258 reporting.
  Task        8 on host co2258 reporting.
  Task        9 on host co2258 reporting.
  Task       10 on host co2258 reporting.
  Task       11 on host co2258 reporting.
  Task       12 on host co2258 reporting.
  Task       13 on host co2258 reporting.
  Task       14 on host co2258 reporting.
  Task       15 on host co2258 reporting.
  Task       16 on host co2258 reporting.
  Task       17 on host co2258 reporting.
  Task       18 on host co2258 reporting.
  Task       19 on host co2258 reporting.
  Task       20 on host co2258 reporting.
  Task       21 on host co2258 reporting.
  Task       22 on host co2258 reporting.
  Task       23 on host co2258 reporting.
  Task       24 on host co2258 reporting.
  Task       25 on host co2258 reporting.
  Task       26 on host co2258 reporting.
  Task       27 on host co2258 reporting.
  Task       28 on host co2258 reporting.
  Task       29 on host co2258 reporting.
  Task       30 on host co2258 reporting.
  Task       31 on host co2258 reporting.
  Task       32 on host co2258 reporting.
  Task       33 on host co2258 reporting.
  Task       34 on host co2258 reporting.
  Task       35 on host co2258 reporting.
  Task       36 on host co2258 reporting.
  Task       37 on host co2258 reporting.
  Task       38 on host co2258 reporting.
  Task       39 on host co2258 reporting.

  Performing system and environment tests:
  | Environment variable OMP_NUM_THREADS correctly set to 1.
  | Checking for ScaLAPACK...
  | Testing pdtran()...
  | All pdtran() tests passed.

  Obtaining array dimensions for all initial allocations:
  
  -----------------------------------------------------------------------
  Parsing control.in (first pass over file, find array dimensions only).
  The contents of control.in will be repeated verbatim below
  unless switched off by setting 'verbatim_writeout .false.' .
  in the first line of control.in .
  -----------------------------------------------------------------------
  
  ##### Physical settings  ################
  xc                 pbe
  spin               none
  charge      0.0
  relativistic       atomic_zora scalar
  #elsi_restart read
  # SCF settings
  ########relax_geometry trm 1E-3
  
  #vdw_correction_hirshfeld
  # k-grid settings  (to be adjusted)
  #empty_states 8
  #use_dipole_correction
  #include_spin_orbit non_self_consistent
  
  mixer   pulay
  n_max_pulay        12 # high for metal
  charge_mix_param   0.1 #low for metal
  #many_body_dispersion_nl    beta=0.81 do_rpa=.true. rpa_rescale_eigs=.true. parallel_mode=k_points
  ################################################################################
  #
  #  FHI-aims code project
  # Volker Blum, Fritz Haber Institute Berlin, 2009
  #
  #  Suggested "tight" defaults for S atom (to be pasted into control.in file)
  #
  #  Revised Jan 04, 2011, following tests (SiC) done by Lydia Nemec:
  #     d and g functions of tier 2 now enabled by default.
  #
  ################################################################################
    species        S
  #     global species definitions
      nucleus             16
      mass                32.065
  #
      l_hartree           6
  #
      cut_pot             4.0          2.0  1.0
      basis_dep_cutoff    1e-4
  #
      radial_base         44 7.0
      radial_multiplier   2
      angular_grids       specified
        division   0.4665  110
        division   0.5810  194
        division   0.7139  302
        division   0.8274  434
  #      division   0.9105  590
  #      division   1.0975  770
  #      division   1.2028  974
  #      outer_grid  974
        outer_grid  434
  ################################################################################
  #
  #  Definition of "minimal" basis
  #
  ################################################################################
  #     valence basis states
      valence      3  s   2.
      valence      3  p   4.
  #     ion occupancy
      ion_occ      3  s   1.
      ion_occ      3  p   3.
  ################################################################################
  #
  #  Suggested additional basis functions. For production calculations,
  #  uncomment them one after another (the most important basis functions are
  #  listed first).
  #
  #  Constructed for dimers: 1.6 A, 1.9 A, 2.5 A, 3.25 A, 4.0 A
  #
  ################################################################################
  #  "First tier" - improvements: -652.81 meV to -45.53 meV
       ionic 3 d auto
       hydro 2 p 1.8
       hydro 4 f 7
       ionic 3 s auto
  #  "Second tier" - improvements: -30.20 meV to -1.74 meV
       hydro 4 d 6.2
       hydro 5 g 10.8
  #     hydro 4 p 4.9
  #     hydro 5 f 10
  #     hydro 1 s 0.8
  #  "Third tier" - improvements: -1.04 meV to -0.20 meV
  #     hydro 3 d 3.9
  #     hydro 3 d 2.7
  #     hydro 5 g 12
  #     hydro 4 p 10.4
  #     hydro 5 f 12.4
  #     hydro 2 s 1.9
  #  "Fourth tier" - improvements: -0.35 meV to -0.06 meV
  #     hydro 4 d 10.4
  #     hydro 4 p 7.2
  #     hydro 4 d 10
  #     hydro 5 g 19.2
  #     hydro 4 s 12
  
  ################################################################################
  #
  # For methods that use the localized form of the "resolution of identity" for
  # the two-electron Coulomb operator (RI_method LVL), particularly Hartree-Fock and
  # hybrid density functional calculations, the highest accuracy can be obtained by
  # uncommenting the line beginning with "for_aux"  below, thus adding an extra g radial
  # function to the construction of the product basis set for the expansion.
  # See Ref. New J. Phys. 17, 093020 (2015) for more information, particularly Figs. 1 and 6.
  #
  ################################################################################
  #
  # for_aux hydro 5 g 6.0
  ################################################################################
  #
  #  FHI-aims code project
  # Volker Blum, Fritz Haber Institute Berlin, 2009
  #
  #  Suggested "tight" defaults for Mo atom (to be pasted into control.in file)
  #
  ################################################################################
    species        Mo
  #     global species definitions
      nucleus             42
      mass                95.94
  #
      l_hartree           6
  #
      cut_pot             4.0  2.0  1.0
      basis_dep_cutoff    1e-4
  #
      radial_base         59 7.0
      radial_multiplier   2
      angular_grids specified
        division   0.3117   50
        division   0.6750  110
        division   1.0351  194
        division   1.2073  302
        division   1.6402  434
  #      division   1.9185  590
  #      division   2.0237  770
  #      division   2.0980  974
  #      division   2.7972 1202
  #      outer_grid  974
        outer_grid  434
  ################################################################################
  #
  #  Definition of "minimal" basis
  #
  ################################################################################
  #     valence basis states
      valence      5  s   1.
      valence      4  p   6.
      valence      4  d   5.
  #     ion occupancy
      ion_occ     5  s   0.
      ion_occ     4  p   6.
      ion_occ     4  d   4.
  ################################################################################
  #
  #  Suggested additional basis functions. For production calculations,
  #  uncomment them one after another (the most important basis functions are
  #  listed first).
  #
  #  Constructed for dimers: 1.675 A, 1.9 A, 2.375 A, 3.00 A, 4.00 A
  #
  ################################################################################
  #  "First tier"  - max. impr. -711.23  meV, min. impr. -21.07 meV
       hydro 4 f 8.4
       hydro 3 d 2.8
       ionic 5 p auto
       hydro 5 g 12
       ionic 5 s auto
  #  "Second tier" - max. impr. -39.38  meV, min. impr. -2.68 meV
  #     hydro 4 f 12.4
  #     hydro 3 d 3.3
  #     hydro 6 h 17.2
  #     hydro 4 f 7.6
  #     hydro 3 p 3.0
  #     hydro 1 s 0.65
  #  "Third tier"  - max. impr. -5.50 meV, min. impr. -0.47 meV
  #     hydro 4 f 29.2
  #     hydro 5 g 11.2
  #     hydro 3 d 6.8
  #     hydro 6 h 14.8
  #     hydro 2 p 2.3
  #     hydro 4 s 3.8
  #  "Fourth tier"  - max. impr. -0.58 meV, min. impr. -0.19 meV
  #     hydro 5 f 6.8
  #     hydro 5 d 14.8
  #     hydro 6 s 7.8
  #     hydro 5 g 20.8
  #     hydro 5 d 10.4
  #     hydro 5 p 9.8
  #  Further functions - -0.17 meV and below
  #     hydro 5 d 3.2
  compute_forces .true.
  final_forces_cleaned .true.
  
  -----------------------------------------------------------------------
  Completed first pass over input file control.in .
  -----------------------------------------------------------------------
  
  
  -----------------------------------------------------------------------
  Parsing geometry.in (first pass over file, find array dimensions only).
  The contents of geometry.in will be repeated verbatim below
  unless switched off by setting 'verbatim_writeout .false.' .
  in the first line of geometry.in .
  -----------------------------------------------------------------------
  
  #
  # temporary structure-file for finite-difference calculation of forces
  # displacement   0.0025 of \# atom     1 direction     0
  #
  atom    2.27440633    5.75999413    7.68131618   S
  atom    2.42985398    7.58687017    6.72038194   S
  atom    0.99871951    8.87882463    7.47815803   S
  atom   -0.65263509    8.87882678    6.23034087   S
  atom   -1.92833396    5.76000217    6.02718462   S
  atom   -0.80558319    4.46810248    7.19101927   S
  atom    1.15164835    4.46809954    6.51748154   S
  atom   -2.08127592    7.58688011    6.98811755   S
  
  -----------------------------------------------------------------------
  Completed first pass over input file geometry.in .
  -----------------------------------------------------------------------
  

  Basic array size parameters:
  | Number of species                 :        2
  | Number of atoms                   :        8
  | Max. basis fn. angular momentum   :        4
  | Max. atomic/ionic basis occupied n:        5
  | Max. number of basis fn. types    :        3
  | Max. radial fns per species/type  :       10
  | Max. logarithmic grid size        :     1436
  | Max. radial integration grid size :      119
  | Max. angular integration grid size:      434
  | Max. angular grid division number :        8
  | Radial grid for Hartree potential :     1436
  | Number of spin channels           :        1

------------------------------------------------------------
          Reading file control.in.
------------------------------------------------------------
  XC: Using PBE gradient-corrected functionals.
  Spin treatment: No spin polarisation.
  Charge =   0.000000E+00: Neutral system requested explicitly.
  Scalar relativistic treatment of kinetic energy: on-site free-atom approximation to ZORA.
  Using pulay charge density mixing.
  Pulay mixing - number of memorized iterations:   12
  Charge density mixing - mixing parameter:     0.1000
 
  Reading configuration options for species S                   .
  | Found nuclear charge :  16.0000
  | Found atomic mass :    32.0650000000000      amu
  | Found l_max for Hartree potential  :   6
  | Found cutoff potl. onset [A], width [A], scale factor :    4.00000    2.00000    1.00000
  | Threshold for basis-dependent cutoff potential is   0.100000E-03
  | Found data for basic radial integration grid :    44 points, outermost radius =    7.000 A
  | Found multiplier for basic radial grid :   2
  | Found angular grid specification: user-specified.
  | Specified grid contains     5 separate shells.
  | Check grid settings after all constraints further below.
  | Found free-atom valence shell :  3 s   2.000
  | Found free-atom valence shell :  3 p   4.000
  | Found free-ion valence shell :  3 s   1.000
  | Found free-ion valence shell :  3 p   3.000
  | Found ionic basis function :  3 d , default cutoff radius.
  | Found hydrogenic basis function :  2 p   1.800
  | Found hydrogenic basis function :  4 f   7.000
  | Found ionic basis function :  3 s , default cutoff radius.
  | Found hydrogenic basis function :  4 d   6.200
  | Found hydrogenic basis function :  5 g  10.800
  Species S                   : Missing cutoff potential type.
  Defaulting to exp(1/x)/(1-x)^2 type cutoff potential.
  Species S : No 'logarithmic' tag. Using default grid for free atom:
  | Default logarithmic grid data [bohr] : 0.1000E-03 0.1000E+03 0.1012E+01
  | Will include ionic basis functions of  2.0-fold positive S                    ion.
  Species S : On-site basis accuracy parameter (for Gram-Schmidt orthonormalisation) not specified.
  Using default value basis_acc =  0.1000000E-03.
  Species S                   : Using default innermost maximum threshold i_radial=  2 for radial functions.
  Species S                   : Default cutoff onset for free atom density etc. : 0.40000000E+01 AA.
  Species S                   : Basic radial grid will be enhanced according to radial_multiplier =   2, to contain    89 grid points.
 
  Reading configuration options for species Mo                  .
  | Found nuclear charge :  42.0000
  | Found atomic mass :    95.9400000000000      amu
  | Found l_max for Hartree potential  :   6
  | Found cutoff potl. onset [A], width [A], scale factor :    4.00000    2.00000    1.00000
  | Threshold for basis-dependent cutoff potential is   0.100000E-03
  | Found data for basic radial integration grid :    59 points, outermost radius =    7.000 A
  | Found multiplier for basic radial grid :   2
  | Found angular grid specification: user-specified.
  | Specified grid contains     6 separate shells.
  | Check grid settings after all constraints further below.
  | Found free-atom valence shell :  5 s   1.000
  | Found free-atom valence shell :  4 p   6.000
  | Found free-atom valence shell :  4 d   5.000
  | Found free-ion valence shell :  5 s   0.000
  | Found free-ion valence shell :  4 p   6.000
  | Found free-ion valence shell :  4 d   4.000
  | Found hydrogenic basis function :  4 f   8.400
  | Found hydrogenic basis function :  3 d   2.800
  | Found ionic basis function :  5 p , default cutoff radius.
  | Found hydrogenic basis function :  5 g  12.000
  | Found ionic basis function :  5 s , default cutoff radius.
  Species Mo                  : Missing cutoff potential type.
  Defaulting to exp(1/x)/(1-x)^2 type cutoff potential.
  Species Mo: No 'logarithmic' tag. Using default grid for free atom:
  | Default logarithmic grid data [bohr] : 0.1000E-03 0.1000E+03 0.1012E+01
  | Will include ionic basis functions of  2.0-fold positive Mo                   ion.
  Species Mo: On-site basis accuracy parameter (for Gram-Schmidt orthonormalisation) not specified.
  Using default value basis_acc =  0.1000000E-03.
  Species Mo                  : Using default innermost maximum threshold i_radial=  2 for radial functions.
  Species Mo                  : Default cutoff onset for free atom density etc. : 0.40000000E+01 AA.
  Species Mo                  : Basic radial grid will be enhanced according to radial_multiplier =   2, to contain   119 grid points.
  Forces will be computed.
  Cleaning forces before final output.
 
  Finished reading input file 'control.in'.
 
------------------------------------------------------------


------------------------------------------------------------
          Reading geometry description geometry.in.
------------------------------------------------------------
  | The smallest distance between any two atoms is         2.06978735 AA.
  | The first atom of this pair is atom number                      3 .
  | The second atom of this pair is atom number                     4 .
  Input structure read successfully.
  The structure contains        8 atoms,  and a total of        128.000 electrons.

  Input geometry:
  | No unit cell requested.
  | Atomic structure:
  |       Atom                x [A]            y [A]            z [A]
  |    1: Species S             2.27440633        5.75999413        7.68131618
  |    2: Species S             2.42985398        7.58687017        6.72038194
  |    3: Species S             0.99871951        8.87882463        7.47815803
  |    4: Species S            -0.65263509        8.87882678        6.23034087
  |    5: Species S            -1.92833396        5.76000217        6.02718462
  |    6: Species S            -0.80558319        4.46810248        7.19101927
  |    7: Species S             1.15164835        4.46809954        6.51748154
  |    8: Species S            -2.08127592        7.58688011        6.98811755

 
  Finished reading input file 'control.in'.
 

------------------------------------------------------------
          Reading geometry description geometry.in.
------------------------------------------------------------
 
  Consistency checks for stacksize environment parameter are next.
 
  | Maximum stacksize for task 0: unlimited
  | Maximum stacksize for task 1: unlimited
  | Maximum stacksize for task 2: unlimited
  | Maximum stacksize for task 3: unlimited
  | Maximum stacksize for task 4: unlimited
  | Maximum stacksize for task 5: unlimited
  | Maximum stacksize for task 6: unlimited
  | Maximum stacksize for task 7: unlimited
  | Maximum stacksize for task 8: unlimited
  | Maximum stacksize for task 9: unlimited
  | Maximum stacksize for task 10: unlimited
  | Maximum stacksize for task 11: unlimited
  | Maximum stacksize for task 12: unlimited
  | Maximum stacksize for task 13: unlimited
  | Maximum stacksize for task 14: unlimited
  | Maximum stacksize for task 15: unlimited
  | Maximum stacksize for task 16: unlimited
  | Maximum stacksize for task 17: unlimited
  | Maximum stacksize for task 18: unlimited
  | Maximum stacksize for task 19: unlimited
  | Maximum stacksize for task 20: unlimited
  | Maximum stacksize for task 21: unlimited
  | Maximum stacksize for task 22: unlimited
  | Maximum stacksize for task 23: unlimited
  | Maximum stacksize for task 24: unlimited
  | Maximum stacksize for task 25: unlimited
  | Maximum stacksize for task 26: unlimited
  | Maximum stacksize for task 27: unlimited
  | Maximum stacksize for task 28: unlimited
  | Maximum stacksize for task 29: unlimited
  | Maximum stacksize for task 30: unlimited
  | Maximum stacksize for task 31: unlimited
  | Maximum stacksize for task 32: unlimited
  | Maximum stacksize for task 33: unlimited
  | Maximum stacksize for task 34: unlimited
  | Maximum stacksize for task 35: unlimited
  | Maximum stacksize for task 36: unlimited
  | Maximum stacksize for task 37: unlimited
  | Maximum stacksize for task 38: unlimited
  | Maximum stacksize for task 39: unlimited
  | Current stacksize for task 0: unlimited
  | Current stacksize for task 1: unlimited
  | Current stacksize for task 2: unlimited
  | Current stacksize for task 3: unlimited
  | Current stacksize for task 4: unlimited
  | Current stacksize for task 5: unlimited
  | Current stacksize for task 6: unlimited
  | Current stacksize for task 7: unlimited
  | Current stacksize for task 8: unlimited
  | Current stacksize for task 9: unlimited
  | Current stacksize for task 10: unlimited
  | Current stacksize for task 11: unlimited
  | Current stacksize for task 12: unlimited
  | Current stacksize for task 13: unlimited
  | Current stacksize for task 14: unlimited
  | Current stacksize for task 15: unlimited
  | Current stacksize for task 16: unlimited
  | Current stacksize for task 17: unlimited
  | Current stacksize for task 18: unlimited
  | Current stacksize for task 19: unlimited
  | Current stacksize for task 20: unlimited
  | Current stacksize for task 21: unlimited
  | Current stacksize for task 22: unlimited
  | Current stacksize for task 23: unlimited
  | Current stacksize for task 24: unlimited
  | Current stacksize for task 25: unlimited
  | Current stacksize for task 26: unlimited
  | Current stacksize for task 27: unlimited
  | Current stacksize for task 28: unlimited
  | Current stacksize for task 29: unlimited
  | Current stacksize for task 30: unlimited
  | Current stacksize for task 31: unlimited
  | Current stacksize for task 32: unlimited
  | Current stacksize for task 33: unlimited
  | Current stacksize for task 34: unlimited
  | Current stacksize for task 35: unlimited
  | Current stacksize for task 36: unlimited
  | Current stacksize for task 37: unlimited
  | Current stacksize for task 38: unlimited
  | Current stacksize for task 39: unlimited
 
  Consistency checks for the contents of control.in are next.
 
  MPI_IN_PLACE appears to work with this MPI implementation.
  | Keeping use_mpi_in_place .true. (see manual).
  Target number of points in a grid batch is not set. Defaulting to  100
  Method for grid partitioning is not set. Defaulting to parallel hash+maxmin partitioning.
  Batch size limit is not set. Defaulting to    200
  By default, will store active basis functions for each batch.
  If in need of memory, prune_basis_once .false. can be used to disable this option.
  communication_type for Hartree potential was not specified.
  Defaulting to calc_hartree .
  Pulay mixer: Number of initial linear mixing iterations not set.
  Defaulting to    0 iterations.
  Work space size for distributed Hartree potential not set.
  Defaulting to   0.200000E+03 MB.
  Algorithm-dependent basis array size parameters:
  | n_max_pulay                         :       12
  Maximum number of self-consistency iterations not provided.
  Presetting  1000 iterations.
  Presetting      1001 iterations before the initial mixing cycle
  is restarted anyway using the sc_init_iter criterion / keyword.
  Presetting a factor      1.000 between actual scf density residual
  and density convergence criterion sc_accuracy_rho below which sc_init_iter
  takes no effect.
 * No s.c.f. convergence criteria (sc_accuracy_*) were provided in control.in.
 * The run will proceed with a reasonable default guess, but please check whether.
 * the s.c.f. cycles seem to take too much or too little time.
  Geometry relaxation not requested: no relaxation will be performed.
  Forces evaluation will include force correction term due to incomplete self-consistency (default).
 * Notice: The s.c.f. convergence criterion sc_accuracy_rho was not provided.
 * We used to stop in this case, and ask the user to provide reasonable
 * scf convergence criteria. However, this led some users to employ criteria
 * that led to extremely long run times, e.g., for simple relaxation.
 * We now preset a default value for sc_accuracy_rho if it is not set.
 * You may still wish to check if this setting is too tight or too loose for your needs.
 * Based on n_atoms and forces and force-correction status, FHI-aims chose sc_accuracy_rho =  0.923760E-05 .
  Force calculation: scf convergence accuracy of forces not set.
  Defaulting to 'sc_accuracy_forces not_checked'.
  Handling of forces: Unphysical translation and rotation will be removed from forces.
  No accuracy limit for integral partition fn. given. Defaulting to  0.1000E-14.
  No threshold value for u(r) in integrations given. Defaulting to  0.1000E-05.
  No occupation type (smearing scheme) given. Defaulting to Gaussian broadening, width =  0.1000E-01 eV.
  The width will be adjusted in iteration number     2 of the first full s.c.f. cycle only.
  S.C.F. convergence parameters will be adjusted in iteration number     2 of the first full s.c.f. cycle only.
  No accuracy for occupation numbers given. Defaulting to  0.1000E-12.
  No threshold value for occupation numbers given. Defaulting to  0.0000E+00.
  No accuracy for fermi level given. Defaulting to  0.1000E-19.
  Maximum # of iterations to find E_F not set. Defaulting to  200.
  Preferred method for the eigenvalue solver ('KS_method') not specified in 'control.in'.
  Calling BLACS routine to test compilation state
  Since ScaLAPACK support is enabled, defaulting to ELPA (via ELSI).
  Will not use alltoall communication since running on < 1024 CPUs.
  Threshold for basis singularities not set.
  Default threshold for basis singularities:  0.1000E-04
  partition_type (choice of integration weights) for integrals was not specified.
  | Using a version of the partition function of Stratmann and coworkers ('stratmann_sparse').
  | At each grid point, the set of atoms used to build the partition table is smoothly restricted to
  | only those atoms whose free-atom density would be non-zero at that grid point.
  Partitioning for Hartree potential was not defined. Using partition_type for integrals.
  | Adjusted default value of keyword multip_moments_threshold to:       0.10000000E-11
  | This value may affect high angular momentum components of the Hartree potential in periodic systems.
  No q(lm)/r^(l+1) cutoff set for long-range Hartree potential.
  | Using default value of  0.100000E-09 .
  | Verify using the multipole_threshold keyword.
  Defaulting to new monopole extrapolation.
  Density update method: automatic selection selected.
  Charge integration errors on the 3D integration grid will be compensated
  by explicit normalization and distribution of residual charges.
  Use the "compensate_multipole_errors" flag to change this behaviour.
  Set 'collect_eigenvectors' to be '.true.' for use_density_matrix .false.
 
  Consistency checks for the contents of geometry.in are next.
 
  Number of empty states per atom not set in control.in - providing a guess from actual geometry.
  | Total number of empty states used during s.c.f. cycle:       24
  If you use a very high smearing, use empty_states (per atom!) in control.in to increase this value.

  Structure-dependent array size parameters: 
  | Maximum number of distinct radial functions  :       26
  | Maximum number of basis functions            :      312
  | Number of Kohn-Sham states (occupied + empty):       88
------------------------------------------------------------

------------------------------------------------------------
          Preparing all fixed parts of the calculation.
------------------------------------------------------------
  Determining machine precision:
    2.225073858507201E-308
  Setting up grids for atomic and cluster calculations.

  Creating wave function, potential, and density for free atoms.

  Species: S

  List of occupied orbitals and eigenvalues:
    n    l              occ      energy [Ha]    energy [eV]
    1    0           2.0000       -88.680731     -2413.1255
    2    0           2.0000        -7.781719      -211.7513
    3    0           2.0000        -0.633662       -17.2428
    2    1           6.0000        -5.751976      -156.5192
    3    1           4.0000        -0.257086        -6.9957


  Species: Mo

  List of occupied orbitals and eigenvalues:
    n    l              occ      energy [Ha]    energy [eV]
    1    0           2.0000      -745.344654    -20281.8600
    2    0           2.0000      -103.288246     -2810.6162
    3    0           2.0000       -17.516687      -476.6533
    4    0           2.0000        -2.358559       -64.1796
    5    0           1.0000        -0.145159        -3.9500
    2    1           6.0000       -92.308627     -2511.8455
    3    1           6.0000       -13.936005      -379.2180
    4    1           6.0000        -1.408138       -38.3174
    3    2          10.0000        -8.119011      -220.9295
    4    2           5.0000        -0.132984        -3.6187


  Adding cutoff potential to free-atom effective potential.
  Creating fixed part of basis set: Ionic, confined, hydrogenic.
 
  S                    ion:

  List of free ionic orbitals and eigenvalues:
    n    l      energy [Ha]    energy [eV]
    1    0       -89.703778     -2440.9640
    2    0        -8.775428      -238.7916
    3    0        -1.470343       -40.0101
    2    1        -6.747660      -183.6132
    3    1        -1.048627       -28.5346


  List of ionic basis orbitals and eigenvalues:
    n    l      energy [Ha]    energy [eV]    outer radius [A]
    3    2        -0.495605       -13.4861       5.386362
    3    0        -1.470336       -40.0099       3.967934

 
  S                    hydrogenic:
 
  List of hydrogenic basis orbitals: 
    n    l      effective z      eigenvalue [eV]  inner max. [A]     outer max. [A]     outer radius [A]   
    2    1         1.800000       -11.0118           1.168531           1.168531           5.452614
    4    3         7.000000       -41.6672           1.212182           1.212182           5.066981
    4    2         6.200000       -32.6848           0.582121           1.814567           5.386362
    5    4        10.800000       -63.4785           1.227092           1.227092           4.766538
 
 
  Mo                   ion:

  List of free ionic orbitals and eigenvalues:
    n    l      energy [Ha]    energy [eV]
    1    0      -746.048685    -20301.0176
    2    0      -103.980912     -2829.4646
    3    0       -18.206601      -495.4268
    4    0        -3.040545       -82.7374
    2    1       -93.001013     -2530.6863
    3    1       -14.625827      -397.9890
    4    1        -2.084855       -56.7318
    3    2        -8.808854      -239.7011
    4    2        -0.765435       -20.8285


  List of ionic basis orbitals and eigenvalues:
    n    l      energy [Ha]    energy [eV]    outer radius [A]
    5    1        -0.465587       -12.6693       5.456393
    5    0        -0.650331       -17.6964       5.390095

 
  Mo                   hydrogenic:
 
  List of hydrogenic basis orbitals: 
    n    l      effective z      eigenvalue [eV]  inner max. [A]     outer max. [A]     outer radius [A]   
    4    3         8.400000       -60.0010           1.009788           1.009788           4.487018
    3    2         2.800000       -11.8048           1.687401           1.687401           5.456393
    5    4        12.000000       -78.3687           1.100005           1.100005           4.432498
 
  Creating atomic-like basis functions for current effective potential.

  Species S                   :

  List of atomic basis orbitals and eigenvalues:
    n    l      energy [Ha]    energy [eV]    outer radius [A]
    1    0       -88.680731     -2413.1255       0.682391
    2    0        -7.781719      -211.7513       2.289014
    3    0        -0.633662       -17.2428       5.256262
    2    1        -5.751976      -156.5192       2.555240
    3    1        -0.257086        -6.9957       5.386362


  Species Mo                  :

  List of atomic basis orbitals and eigenvalues:
    n    l      energy [Ha]    energy [eV]    outer radius [A]
    1    0      -745.344654    -20281.8600       0.247552
    2    0      -103.288246     -2810.6162       0.682864
    3    0       -17.516687      -476.6533       1.626637
    4    0        -2.358559       -64.1796       4.220963
    5    0        -0.145159        -3.9500       5.456393
    2    1       -92.308627     -2511.8455       0.699766
    3    1       -13.936005      -379.2180       1.793761
    4    1        -1.408138       -38.3174       4.828511
    3    2        -8.119011      -220.9295       2.181285
    4    2        -0.132984        -3.6187       5.390095

  Assembling full basis from fixed parts.
  | Species S :   atomic orbital   1 s accepted.
  | Species S :   atomic orbital   2 s accepted.
  | Species S :    ionic orbital   3 s accepted.
  | Species S :   atomic orbital   3 s accepted.
  | Species S :   atomic orbital   2 p accepted.
  | Species S :   atomic orbital   3 p accepted.
  | Species S :    hydro orbital   2 p accepted.
  | Species S :    ionic orbital   3 d accepted.
  | Species S :    hydro orbital   4 d accepted.
  | Species S :    hydro orbital   4 f accepted.
  | Species S :    hydro orbital   5 g accepted.
  | Species Mo :   atomic orbital   1 s accepted.
  | Species Mo :   atomic orbital   2 s accepted.
  | Species Mo :   atomic orbital   3 s accepted.
  | Species Mo :   atomic orbital   4 s accepted.
  | Species Mo :    ionic orbital   5 s accepted.
  | Species Mo :   atomic orbital   5 s accepted.
  | Species Mo :   atomic orbital   2 p accepted.
  | Species Mo :   atomic orbital   3 p accepted.
  | Species Mo :   atomic orbital   4 p accepted.
  | Species Mo :    ionic orbital   5 p accepted.
  | Species Mo :   atomic orbital   3 d accepted.
  | Species Mo :   atomic orbital   4 d accepted.
  | Species Mo :    hydro orbital   3 d accepted.
  | Species Mo :    hydro orbital   4 f accepted.
  | Species Mo :    hydro orbital   5 g accepted.
 
  Basis size parameters after reduction:
  | Total number of radial functions:       26
  | Total number of basis functions :      312
 
  Per-task memory consumption for arrays in subroutine allocate_ext:
  |           9.566776MB.
  Testing on-site integration grid accuracy.
  |  Species  Function  <phi|h_atom|phi> (log., in eV)  <phi|h_atom|phi> (rad., in eV)
           1        1              -2413.1254568977              -2413.1254096663
           1        2               -211.7513411281               -211.7513404762
           1        3                -16.9725280787                -16.9725279206
           1        4                  7.6024436204                  7.6024549059
           1        5               -156.5192206929               -156.5192205451
           1        6                 -6.9959757887                 -6.9959777655
           1        7                  6.8896462808                  6.8895564741
           1        8                  6.0214250550                  6.0214220200
           1        9                 19.6206468977                 19.6206494558
           1       10                 24.7008710786                 24.7008710738
           1       11                 47.5292252001                 47.5292260486
           2       12             -20281.8599610543             -20281.8584300616
           2       13              -2810.6161812280              -2810.6161551921
           2       14               -476.6533163555               -476.6533136395
           2       15                -64.1796433667                -64.1796426456
           2       16                 -3.3691762756                 -3.3691802887
           2       17                  4.4704608512                  4.4699102345
           2       18              -2511.8455406047              -2511.8455385741
           2       19               -379.2179896350               -379.2179882338
           2       20                -38.3173891619                -38.3173886619
           2       21                  0.2493245095                  0.2492931069
           2       22               -220.9295301098               -220.9295297081
           2       23                 -3.6195697699                 -3.6195754704
           2       24                  7.1428000922                  7.1426882355
           2       25                 23.3975871087                 23.3975871819
           2       26                 50.2449608881                 50.2449608586

  Preparing densities etc. for the partition functions (integrals / Hartree potential).

  Preparations completed.
  max(cpu_time)          :      0.435 s.
  Wall clock time (cpu1) :      0.442 s.
------------------------------------------------------------

------------------------------------------------------------
          Begin self-consistency loop: Initialization.

          Date     :  20210628, Time     :  160452.020
------------------------------------------------------------

  Initializing index lists of integration centers etc. from given atomic structure:
  | Number of centers in hartree potential         :         8
  | Number of centers in hartree multipole         :         8
  | Number of centers in electron density summation:         8
  | Number of centers in basis integrals           :         8
  | Number of centers in integrals                 :         8
  | Number of centers in hamiltonian               :         8
  * Using 40 tasks for Scalapack Eigenvalue solver.
  Detailed listing of tasks and assigned k-points:
  (for non-periodic systems, the "k-point" denotes an internal label only)
   Task     0 k-point     1 on co2258
   Task     1 k-point     1 on co2258
   Task     2 k-point     1 on co2258
   Task     3 k-point     1 on co2258
   Task     4 k-point     1 on co2258
   Task     5 k-point     1 on co2258
   Task     6 k-point     1 on co2258
   Task     7 k-point     1 on co2258
   Task     8 k-point     1 on co2258
   Task     9 k-point     1 on co2258
   Task    10 k-point     1 on co2258
   Task    11 k-point     1 on co2258
   Task    12 k-point     1 on co2258
   Task    13 k-point     1 on co2258
   Task    14 k-point     1 on co2258
   Task    15 k-point     1 on co2258
   Task    16 k-point     1 on co2258
   Task    17 k-point     1 on co2258
   Task    18 k-point     1 on co2258
   Task    19 k-point     1 on co2258
   Task    20 k-point     1 on co2258
   Task    21 k-point     1 on co2258
   Task    22 k-point     1 on co2258
   Task    23 k-point     1 on co2258
   Task    24 k-point     1 on co2258
   Task    25 k-point     1 on co2258
   Task    26 k-point     1 on co2258
   Task    27 k-point     1 on co2258
   Task    28 k-point     1 on co2258
   Task    29 k-point     1 on co2258
   Task    30 k-point     1 on co2258
   Task    31 k-point     1 on co2258
   Task    32 k-point     1 on co2258
   Task    33 k-point     1 on co2258
   Task    34 k-point     1 on co2258
   Task    35 k-point     1 on co2258
   Task    36 k-point     1 on co2258
   Task    37 k-point     1 on co2258
   Task    38 k-point     1 on co2258
   Task    39 k-point     1 on co2258
  Tasks:    40 split into      8 X      5 BLACS grid
  Calculating block size based on n_basis =          312  max_nprow =            8  max_npcol =            5
  ScaLAPACK block size set to:           16
  Allocating        0.023 MB for ovlp
  Allocating        0.023 MB for ham
  Allocating        0.023 MB for eigenvec
  Required Scalapack workspace - INTEGER:            1  REAL:             1
  Partitioning the integration grid into batches with parallel hashing+maxmin method.
  | Number of batches:     2321
  | Maximal batch size:     200
  | Minimal batch size:      22
  | Average batch size:      84.453
  | Standard deviation of batch sizes:      20.961

  Integration load balanced across    40 MPI tasks.
  Work distribution over tasks is as follows:
  Task     0 has       4935 integration points.
  Task     1 has       4929 integration points.
  Task     2 has       4835 integration points.
  Task     3 has       4968 integration points.
  Task     4 has       4858 integration points.
  Task     5 has       4937 integration points.
  Task     6 has       4933 integration points.
  Task     7 has       4933 integration points.
  Task     8 has       4930 integration points.
  Task     9 has       4932 integration points.
  Task    10 has       4830 integration points.
  Task    11 has       4851 integration points.
  Task    12 has       4970 integration points.
  Task    13 has       4925 integration points.
  Task    14 has       4831 integration points.
  Task    15 has       4942 integration points.
  Task    16 has       4844 integration points.
  Task    17 has       4887 integration points.
  Task    18 has       4839 integration points.
  Task    19 has       4929 integration points.
  Task    20 has       4846 integration points.
  Task    21 has       4857 integration points.
  Task    22 has       4881 integration points.
  Task    23 has       4928 integration points.
  Task    24 has       4925 integration points.
  Task    25 has       4948 integration points.
  Task    26 has       4883 integration points.
  Task    27 has       4859 integration points.
  Task    28 has       4926 integration points.
  Task    29 has       4855 integration points.
  Task    30 has       4877 integration points.
  Task    31 has       4844 integration points.
  Task    32 has       4829 integration points.
  Task    33 has       4938 integration points.
  Task    34 has       4904 integration points.
  Task    35 has       4964 integration points.
  Task    36 has       4876 integration points.
  Task    37 has       4961 integration points.
  Task    38 has       4935 integration points.
  Task    39 has       4942 integration points.
  Initializing partition tables, free-atom densities, potentials, etc. across the integration grid (initialize_grid_storage).
  | initialize_grid_storage: Actual outermost partition radius vs. multipole_radius_free
  | (-- VB: in principle, multipole_radius_free should be larger, hence this output)
  | Species        1: Confinement radius =              6.000000000000000 AA, multipole_radius_free =              6.012827091137924 AA.
  | Species        1: outer_partition_radius set to              6.012827091137924 AA .
  | Species        2: Confinement radius =              6.000000000000000 AA, multipole_radius_free =              6.016994434057369 AA.
  | Species        2: outer_partition_radius set to              6.016994434057369 AA .
  | The sparse table of interatomic distances needs          0.71 kbyte instead of         0.51 kbyte of memory.
  | Using the partition_type stratmann_smoother will reduce your memory usage.
  | Net number of integration points:   196016
  | of which are non-zero points    :   181193
  Renormalizing the initial density to the exact electron count on the 3D integration grid.
  | Initial density: Formal number of electrons (from input files) :     128.0000000000
  | Integrated number of electrons on 3D grid     :     127.9999793397
  | Charge integration error                      :      -0.0000206603
  | Normalization factor for density and gradient :       1.0000001614
  Renormalizing the free-atom superposition density to the exact electron count on the 3D integration grid.
  | Formal number of electrons (from input files) :     128.0000000000
  | Integrated number of electrons on 3D grid     :     127.9999793397
  | Charge integration error                      :      -0.0000206603
  | Normalization factor for density and gradient :       1.0000001614
  Obtaining max. number of non-zero basis functions in each batch (get_n_compute_maxes).
  | Maximal number of non-zero basis functions:      301 in task     0
  | Maximal number of non-zero basis functions:      299 in task     1
  | Maximal number of non-zero basis functions:      292 in task     2
  | Maximal number of non-zero basis functions:      298 in task     3
  | Maximal number of non-zero basis functions:      302 in task     4
  | Maximal number of non-zero basis functions:      292 in task     5
  | Maximal number of non-zero basis functions:      303 in task     6
  | Maximal number of non-zero basis functions:      295 in task     7
  | Maximal number of non-zero basis functions:      291 in task     8
  | Maximal number of non-zero basis functions:      304 in task     9
  | Maximal number of non-zero basis functions:      298 in task    10
  | Maximal number of non-zero basis functions:      303 in task    11
  | Maximal number of non-zero basis functions:      302 in task    12
  | Maximal number of non-zero basis functions:      298 in task    13
  | Maximal number of non-zero basis functions:      295 in task    14
  | Maximal number of non-zero basis functions:      302 in task    15
  | Maximal number of non-zero basis functions:      298 in task    16
  | Maximal number of non-zero basis functions:      294 in task    17
  | Maximal number of non-zero basis functions:      303 in task    18
  | Maximal number of non-zero basis functions:      297 in task    19
  | Maximal number of non-zero basis functions:      304 in task    20
  | Maximal number of non-zero basis functions:      299 in task    21
  | Maximal number of non-zero basis functions:      302 in task    22
  | Maximal number of non-zero basis functions:      297 in task    23
  | Maximal number of non-zero basis functions:      298 in task    24
  | Maximal number of non-zero basis functions:      300 in task    25
  | Maximal number of non-zero basis functions:      302 in task    26
  | Maximal number of non-zero basis functions:      299 in task    27
  | Maximal number of non-zero basis functions:      292 in task    28
  | Maximal number of non-zero basis functions:      304 in task    29
  | Maximal number of non-zero basis functions:      303 in task    30
  | Maximal number of non-zero basis functions:      304 in task    31
  | Maximal number of non-zero basis functions:      298 in task    32
  | Maximal number of non-zero basis functions:      298 in task    33
  | Maximal number of non-zero basis functions:      298 in task    34
  | Maximal number of non-zero basis functions:      298 in task    35
  | Maximal number of non-zero basis functions:      304 in task    36
  | Maximal number of non-zero basis functions:      304 in task    37
  | Maximal number of non-zero basis functions:      295 in task    38
  | Maximal number of non-zero basis functions:      295 in task    39
  Selecting the method for density update.
  Loop over occupied states selected for charge density update.
  Allocating        0.209 MB for KS_eigenvector
  Integrating Hamiltonian matrix: batch-based integration.
  Time summed over all CPUs for integration: real work        2.382 s, elapsed        2.526 s
  Integrating overlap matrix.
  Time summed over all CPUs for integration: real work        0.914 s, elapsed        0.978 s
  Deallocating overlap matrix.

  Updating Kohn-Sham eigenvalues and eigenvectors using ELSI and the ELPA eigensolver.
  Overlap matrix is not singular
  | Lowest and highest eigenvalues :  0.4529E-03,  0.4893E+01
  Finished singularity check of overlap matrix
  | Time :     0.011 s
  Starting ELPA eigensolver
  Finished Cholesky decomposition
  | Time :     0.004 s
  Finished transformation to standard eigenproblem
  | Time :     0.003 s
  Finished solving standard eigenproblem
  | Time :     0.009 s
  Finished back-transformation of eigenvectors
  | Time :     0.001 s

  Obtaining occupation numbers and chemical potential using ELSI.
  | Chemical potential (Fermi level):    -5.59960585 eV
  Writing Kohn-Sham eigenvalues.

  State    Occupation    Eigenvalue [Ha]    Eigenvalue [eV]
      1       2.00000         -88.694234        -2413.49290
      2       2.00000         -88.694233        -2413.49288
      3       2.00000         -88.694233        -2413.49287
      4       2.00000         -88.694233        -2413.49287
      5       2.00000         -88.694232        -2413.49285
      6       2.00000         -88.694229        -2413.49278
      7       2.00000         -88.694193        -2413.49178
      8       2.00000         -88.694186        -2413.49160
      9       2.00000          -7.797380         -212.17750
     10       2.00000          -7.797369         -212.17722
     11       2.00000          -7.797357         -212.17689
     12       2.00000          -7.797338         -212.17637
     13       2.00000          -7.797326         -212.17605
     14       2.00000          -7.797311         -212.17563
     15       2.00000          -7.797302         -212.17538
     16       2.00000          -7.797270         -212.17451
     17       2.00000          -5.768566         -156.97066
     18       2.00000          -5.768528         -156.96963
     19       2.00000          -5.768508         -156.96908
     20       2.00000          -5.768414         -156.96652
     21       2.00000          -5.768406         -156.96633
     22       2.00000          -5.768299         -156.96339
     23       2.00000          -5.768287         -156.96309
     24       2.00000          -5.768229         -156.96150
     25       2.00000          -5.767451         -156.94032
     26       2.00000          -5.767422         -156.93955
     27       2.00000          -5.767406         -156.93910
     28       2.00000          -5.767356         -156.93773
     29       2.00000          -5.767347         -156.93751
     30       2.00000          -5.767307         -156.93640
     31       2.00000          -5.767305         -156.93636
     32       2.00000          -5.767267         -156.93531
     33       2.00000          -5.766361         -156.91066
     34       2.00000          -5.766360         -156.91063
     35       2.00000          -5.766359         -156.91061
     36       2.00000          -5.766358         -156.91057
     37       2.00000          -5.766357         -156.91055
     38       2.00000          -5.766355         -156.91049
     39       2.00000          -5.766316         -156.90944
     40       2.00000          -5.766309         -156.90925
     41       2.00000          -0.820992          -22.34032
     42       2.00000          -0.792245          -21.55807
     43       2.00000          -0.792101          -21.55416
     44       2.00000          -0.716128          -19.48684
     45       2.00000          -0.716004          -19.48346
     46       2.00000          -0.612720          -16.67296
     47       2.00000          -0.612603          -16.66976
     48       2.00000          -0.542809          -14.77058
     49       2.00000          -0.449908          -12.24263
     50       2.00000          -0.424957          -11.56367
     51       2.00000          -0.424931          -11.56296
     52       2.00000          -0.392932          -10.69221
     53       2.00000          -0.368014          -10.01416
     54       2.00000          -0.367957          -10.01263
     55       2.00000          -0.361646           -9.84089
     56       2.00000          -0.361598           -9.83960
     57       2.00000          -0.329787           -8.97397
     58       2.00000          -0.277594           -7.55373
     59       2.00000          -0.277578           -7.55327
     60       2.00000          -0.270349           -7.35656
     61       2.00000          -0.270285           -7.35482
     62       2.00000          -0.262918           -7.15438
     63       2.00000          -0.262861           -7.15282
     64       2.00000          -0.256776           -6.98724
     65       0.00000          -0.132883           -3.61594
     66       0.00000          -0.132825           -3.61434
     67       0.00000          -0.120187           -3.27045
     68       0.00000          -0.085872           -2.33668
     69       0.00000          -0.084675           -2.30413
     70       0.00000          -0.084598           -2.30202
     71       0.00000          -0.083182           -2.26350
     72       0.00000          -0.083083           -2.26079
     73       0.00000           0.028331            0.77092
     74       0.00000           0.049452            1.34566
     75       0.00000           0.049496            1.34685
     76       0.00000           0.064523            1.75575
     77       0.00000           0.064542            1.75629
     78       0.00000           0.079551            2.16470
     79       0.00000           0.079574            2.16532
     80       0.00000           0.091438            2.48815
     81       0.00000           0.093535            2.54521
     82       0.00000           0.093693            2.54952
     83       0.00000           0.114820            3.12441
     84       0.00000           0.117742            3.20393
     85       0.00000           0.117764            3.20452
     86       0.00000           0.123077            3.34910
     87       0.00000           0.123131            3.35057
     88       0.00000           0.141232            3.84311

  Highest occupied state (VBM) at     -6.98723852 eV
  | Occupation number:      2.00000000

  Lowest unoccupied state (CBM) at    -3.61593864 eV
  | Occupation number:      0.00000000

  Overall HOMO-LUMO gap:      3.37129987 eV.
  Calculating total energy contributions from superposition of free atom densities.

  Total energy components:
  | Sum of eigenvalues            :       -1842.62998014 Ha      -50140.51288078 eV
  | XC energy correction          :        -204.89647127 Ha       -5575.51666231 eV
  | XC potential correction       :         264.81959996 Ha        7206.10795766 eV
  | Free-atom electrostatic energy:       -1415.64948135 Ha      -38521.78235434 eV
  | Hartree energy correction     :           0.00000000 Ha           0.00000000 eV
  | Entropy correction            :           0.00000000 Ha           0.00000000 eV
  | ---------------------------
  | Total energy                  :       -3198.35633280 Ha      -87031.70393977 eV
  | Total energy, T -> 0          :       -3198.35633280 Ha      -87031.70393977 eV  <-- do not rely on this value for anything but (periodic) metals
  | Electronic free energy        :       -3198.35633280 Ha      -87031.70393977 eV

  Derived energy quantities:
  | Kinetic energy                :        3210.58985347 Ha       87364.59497462 eV
  | Electrostatic energy          :       -6204.04971500 Ha     -168820.78225207 eV
  | Energy correction for multipole
  | error in Hartree potential    :           0.00000000 Ha           0.00000000 eV
  | Sum of eigenvalues per atom                           :       -6267.56411010 eV
  | Total energy (T->0) per atom                          :      -10878.96299247 eV  <-- do not rely on this value for anything but (periodic) metals
  | Electronic free energy per atom                       :      -10878.96299247 eV
  Initialize hartree_potential_storage
  Max. number of atoms included in rho_multipole:            8

  End scf initialization - timings             :  max(cpu_time)    wall_clock(cpu1)
  | Time for scf. initialization               :        0.241 s           0.244 s
  | Boundary condition initialization          :        0.000 s           0.000 s
  | Integration                                :        0.091 s           0.092 s
  | Solution of K.-S. eqns.                    :        0.031 s           0.032 s
  | Grid partitioning                          :        0.090 s           0.090 s
  | Preloading free-atom quantities on grid    :        0.020 s           0.020 s
  | Free-atom superposition energy             :        0.005 s           0.005 s
  | Total energy evaluation                    :        0.000 s           0.001 s

  Partial memory accounting:
  | Current value for overall tracked memory usage:
  |   Minimum:        0.624 MB (on task 24)
  |   Maximum:        0.653 MB (on task  0)
  |   Average:        0.639 MB
  | Peak value for overall tracked memory usage:
  |   Minimum:        2.996 MB (on task 28 after allocating wave)
  |   Maximum:        3.121 MB (on task  9 after allocating wave)
  |   Average:        3.069 MB
  | Largest tracked array allocation so far:
  |   Minimum:        0.646 MB (hamiltonian_shell on task  8)
  |   Maximum:        0.916 MB (all_coords on task 21)
  |   Average:        0.705 MB
  Note:  These values currently only include a subset of arrays which are explicitly tracked.
  The "true" memory usage will be greater.
------------------------------------------------------------
  Evaluating new KS density.
  Integration grid: deviation in total charge (<rho> - N_e) =   0.000000E+00

  Time for density update prior                :  max(cpu_time)    wall_clock(cpu1)
  | self-consistency iterative process         :        0.049 s           0.049 s

------------------------------------------------------------
          Begin self-consistency iteration #    1

  Date     :  20210628, Time     :  160452.315
------------------------------------------------------------
  Pulay mixing of updated and previous charge densities.
  Renormalizing the density to the exact electron count on the 3D integration grid.
  | Formal number of electrons (from input files) :     128.0000000000
  | Integrated number of electrons on 3D grid     :     128.0000000000
  | Charge integration error                      :      -0.0000000000
  | Normalization factor for density and gradient :       1.0000000000

  Evaluating partitioned Hartree potential by multipole expansion.
  | Original multipole sum: apparent total charge =  -0.611857E-13
  | Sum of charges compensated after spline to logarithmic grids =   0.191599E-06
  | Analytical far-field extrapolation by fixed multipoles:
  | Hartree multipole sum: apparent total charge =  -0.611686E-13
  Summing up the Hartree potential.
  Time summed over all CPUs for potential: real work        0.823 s, elapsed        0.851 s
  | RMS charge density error from multipole expansion :   0.574978E-03

  Integrating Hamiltonian matrix: batch-based integration.
  Time summed over all CPUs for integration: real work        2.318 s, elapsed        2.466 s

  Updating Kohn-Sham eigenvalues and eigenvectors using ELSI and the ELPA eigensolver.
  Starting ELPA eigensolver
  Finished transformation to standard eigenproblem
  | Time :     0.001 s
  Finished solving standard eigenproblem
  | Time :     0.008 s
  Finished back-transformation of eigenvectors
  | Time :     0.001 s

  Obtaining occupation numbers and chemical potential using ELSI.
  | Chemical potential (Fermi level):    -5.54533753 eV
  Writing Kohn-Sham eigenvalues.

  State    Occupation    Eigenvalue [Ha]    Eigenvalue [eV]
      1       2.00000         -88.690615        -2413.39442
      2       2.00000         -88.690603        -2413.39411
      3       2.00000         -88.690602        -2413.39407
      4       2.00000         -88.690601        -2413.39404
      5       2.00000         -88.690600        -2413.39403
      6       2.00000         -88.690599        -2413.39399
      7       2.00000         -88.690578        -2413.39342
      8       2.00000         -88.690554        -2413.39276
      9       2.00000          -7.793941         -212.08393
     10       2.00000          -7.793932         -212.08368
     11       2.00000          -7.793921         -212.08337
     12       2.00000          -7.793901         -212.08285
     13       2.00000          -7.793888         -212.08249
     14       2.00000          -7.793872         -212.08205
     15       2.00000          -7.793867         -212.08191
     16       2.00000          -7.793834         -212.08102
     17       2.00000          -5.765519         -156.88774
     18       2.00000          -5.765480         -156.88671
     19       2.00000          -5.765462         -156.88621
     20       2.00000          -5.765366         -156.88360
     21       2.00000          -5.765357         -156.88334
     22       2.00000          -5.765251         -156.88045
     23       2.00000          -5.765238         -156.88012
     24       2.00000          -5.765185         -156.87867
     25       2.00000          -5.764121         -156.84971
     26       2.00000          -5.764095         -156.84901
     27       2.00000          -5.764080         -156.84861
     28       2.00000          -5.764030         -156.84724
     29       2.00000          -5.764019         -156.84694
     30       2.00000          -5.763978         -156.84583
     31       2.00000          -5.763972         -156.84566
     32       2.00000          -5.763939         -156.84476
     33       2.00000          -5.762344         -156.80137
     34       2.00000          -5.762335         -156.80110
     35       2.00000          -5.762333         -156.80107
     36       2.00000          -5.762333         -156.80105
     37       2.00000          -5.762331         -156.80100
     38       2.00000          -5.762331         -156.80099
     39       2.00000          -5.762302         -156.80023
     40       2.00000          -5.762282         -156.79967
     41       2.00000          -0.818524          -22.27316
     42       2.00000          -0.789750          -21.49019
     43       2.00000          -0.789608          -21.48632
     44       2.00000          -0.713568          -19.41718
     45       2.00000          -0.713445          -19.41383
     46       2.00000          -0.610035          -16.59991
     47       2.00000          -0.609919          -16.59673
     48       2.00000          -0.539896          -14.69133
     49       2.00000          -0.447663          -12.18152
     50       2.00000          -0.422498          -11.49675
     51       2.00000          -0.422472          -11.49605
     52       2.00000          -0.390556          -10.62757
     53       2.00000          -0.365518           -9.94625
     54       2.00000          -0.365459           -9.94464
     55       2.00000          -0.359272           -9.77628
     56       2.00000          -0.359225           -9.77500
     57       2.00000          -0.327074           -8.90015
     58       2.00000          -0.274810           -7.47796
     59       2.00000          -0.274792           -7.47748
     60       2.00000          -0.267680           -7.28394
     61       2.00000          -0.267613           -7.28211
     62       2.00000          -0.260102           -7.07772
     63       2.00000          -0.260044           -7.07615
     64       2.00000          -0.254003           -6.91176
     65       0.00000          -0.130675           -3.55585
     66       0.00000          -0.130616           -3.55426
     67       0.00000          -0.117869           -3.20737
     68       0.00000          -0.083718           -2.27807
     69       0.00000          -0.082502           -2.24499
     70       0.00000          -0.082424           -2.24287
     71       0.00000          -0.080779           -2.19810
     72       0.00000          -0.080677           -2.19534
     73       0.00000           0.030304            0.82461
     74       0.00000           0.051422            1.39928
     75       0.00000           0.051465            1.40044
     76       0.00000           0.066319            1.80462
     77       0.00000           0.066338            1.80515
     78       0.00000           0.081055            2.20562
     79       0.00000           0.081078            2.20624
     80       0.00000           0.092973            2.52993
     81       0.00000           0.095210            2.59079
     82       0.00000           0.095706            2.60429
     83       0.00000           0.116808            3.17852
     84       0.00000           0.119687            3.25685
     85       0.00000           0.119709            3.25745
     86       0.00000           0.124931            3.39954
     87       0.00000           0.124986            3.40105
     88       0.00000           0.143220            3.89721

  Highest occupied state (VBM) at     -6.91176352 eV
  | Occupation number:      2.00000000

  Lowest unoccupied state (CBM) at    -3.55585160 eV
  | Occupation number:      0.00000000

  Overall HOMO-LUMO gap:      3.35591193 eV.

  Total energy components:
  | Sum of eigenvalues            :       -1842.22623484 Ha      -50129.52641213 eV
  | XC energy correction          :        -204.92024973 Ha       -5576.16370721 eV
  | XC potential correction       :         264.85020535 Ha        7206.94077275 eV
  | Free-atom electrostatic energy:       -1415.64948135 Ha      -38521.78235434 eV
  | Hartree energy correction     :          -0.40742757 Ha         -11.08666831 eV
  | Entropy correction            :           0.00000000 Ha           0.00000000 eV
  | ---------------------------
  | Total energy                  :       -3198.35318814 Ha      -87031.61836923 eV
  | Total energy, T -> 0          :       -3198.35318814 Ha      -87031.61836923 eV  <-- do not rely on this value for anything but (periodic) metals
  | Electronic free energy        :       -3198.35318814 Ha      -87031.61836923 eV

  Derived energy quantities:
  | Kinetic energy                :        3210.65736584 Ha       87366.43207957 eV
  | Electrostatic energy          :       -6204.09030425 Ha     -168821.88674159 eV
  | Energy correction for multipole
  | error in Hartree potential    :          -0.00027134 Ha          -0.00738351 eV
  | Sum of eigenvalues per atom                           :       -6266.19080152 eV
  | Total energy (T->0) per atom                          :      -10878.95229615 eV  <-- do not rely on this value for anything but (periodic) metals
  | Electronic free energy per atom                       :      -10878.95229615 eV
  Evaluating new KS density.
  Integration grid: deviation in total charge (<rho> - N_e) =   0.000000E+00

  Self-consistency convergence accuracy:
  | Change of charge density      :  0.2417E+00
  | Change of sum of eigenvalues  :  0.1099E+02 eV
  | Change of total energy        :  0.8557E-01 eV


------------------------------------------------------------
  End self-consistency iteration #     1       :  max(cpu_time)    wall_clock(cpu1)
  | Time for this iteration                    :        0.148 s           0.148 s
  | Charge density update                      :        0.047 s           0.047 s
  | Density mixing                             :        0.001 s           0.000 s
  | Hartree multipole update                   :        0.003 s           0.003 s
  | Hartree multipole summation                :        0.022 s           0.022 s
  | Integration                                :        0.063 s           0.063 s
  | Solution of K.-S. eqns.                    :        0.012 s           0.012 s
  | Total energy evaluation                    :        0.001 s           0.000 s

  Partial memory accounting:
  | Current value for overall tracked memory usage:
  |   Minimum:        0.624 MB (on task 24)
  |   Maximum:        0.653 MB (on task  0)
  |   Average:        0.639 MB
  | Peak value for overall tracked memory usage:
  |   Minimum:        2.996 MB (on task 28 after allocating wave)
  |   Maximum:        3.121 MB (on task  9 after allocating wave)
  |   Average:        3.069 MB
  | Largest tracked array allocation so far:
  |   Minimum:        1.332 MB (gradient_basis_wave on task  8)
  |   Maximum:        1.392 MB (gradient_basis_wave on task  9)
  |   Average:        1.369 MB
  Note:  These values currently only include a subset of arrays which are explicitly tracked.
  The "true" memory usage will be greater.
------------------------------------------------------------

------------------------------------------------------------
          Begin self-consistency iteration #    2

  Date     :  20210628, Time     :  160452.464
------------------------------------------------------------
  Pulay mixing of updated and previous charge densities.
  Renormalizing the density to the exact electron count on the 3D integration grid.
  | Formal number of electrons (from input files) :     128.0000000000
  | Integrated number of electrons on 3D grid     :     128.0000000000
  | Charge integration error                      :      -0.0000000000
  | Normalization factor for density and gradient :       1.0000000000

  Evaluating partitioned Hartree potential by multipole expansion.
  | Original multipole sum: apparent total charge =  -0.429718E-13
  | Sum of charges compensated after spline to logarithmic grids =   0.105482E-05
  | Analytical far-field extrapolation by fixed multipoles:
  | Hartree multipole sum: apparent total charge =  -0.429223E-13
  Summing up the Hartree potential.
  Time summed over all CPUs for potential: real work        0.821 s, elapsed        0.855 s
  | RMS charge density error from multipole expansion :   0.512656E-02

  Integrating Hamiltonian matrix: batch-based integration.
  Time summed over all CPUs for integration: real work        2.317 s, elapsed        2.457 s

  Updating Kohn-Sham eigenvalues and eigenvectors using ELSI and the ELPA eigensolver.
  Starting ELPA eigensolver
  Finished transformation to standard eigenproblem
  | Time :     0.001 s
  Finished solving standard eigenproblem
  | Time :     0.008 s
  Finished back-transformation of eigenvectors
  | Time :     0.000 s

  Obtaining occupation numbers and chemical potential using ELSI.
  | Chemical potential (Fermi level):    -5.13341593 eV
  Highest occupied state (VBM) at     -6.33735727 eV
  | Occupation number:      2.00000000

  Lowest unoccupied state (CBM) at    -3.10074898 eV
  | Occupation number:      0.00000000

  Overall HOMO-LUMO gap:      3.23660829 eV.

  Checking to see if s.c.f. parameters should be adjusted.
  Kept the default occupation width. Value:   0.010000 eV.

  Total energy components:
  | Sum of eigenvalues            :       -1839.27579598 Ha      -50049.24088595 eV
  | XC energy correction          :        -205.11943429 Ha       -5581.58379479 eV
  | XC potential correction       :         265.10516660 Ha        7213.87862129 eV
  | Free-atom electrostatic energy:       -1415.64948135 Ha      -38521.78235434 eV
  | Hartree energy correction     :          -3.40415457 Ha         -92.63175887 eV
  | Entropy correction            :           0.00000000 Ha           0.00000000 eV
  | ---------------------------
  | Total energy                  :       -3198.34369959 Ha      -87031.36017265 eV
  | Total energy, T -> 0          :       -3198.34369959 Ha      -87031.36017265 eV  <-- do not rely on this value for anything but (periodic) metals
  | Electronic free energy        :       -3198.34369959 Ha      -87031.36017265 eV

  Derived energy quantities:
  | Kinetic energy                :        3211.01057529 Ha       87376.04339773 eV
  | Electrostatic energy          :       -6204.23484059 Ha     -168825.81977559 eV
  | Energy correction for multipole
  | error in Hartree potential    :          -0.00254959 Ha          -0.06937779 eV
  | Sum of eigenvalues per atom                           :       -6256.15511074 eV
  | Total energy (T->0) per atom                          :      -10878.92002158 eV  <-- do not rely on this value for anything but (periodic) metals
  | Electronic free energy per atom                       :      -10878.92002158 eV
  Evaluating new KS density.
  Integration grid: deviation in total charge (<rho> - N_e) =   8.526513E-14

  Self-consistency convergence accuracy:
  | Change of charge density      :  0.2148E+00
  | Change of sum of eigenvalues  :  0.8029E+02 eV
  | Change of total energy        :  0.2582E+00 eV


------------------------------------------------------------
  End self-consistency iteration #     2       :  max(cpu_time)    wall_clock(cpu1)
  | Time for this iteration                    :        0.147 s           0.146 s
  | Charge density update                      :        0.047 s           0.046 s
  | Density mixing                             :        0.001 s           0.001 s
  | Hartree multipole update                   :        0.003 s           0.003 s
  | Hartree multipole summation                :        0.022 s           0.021 s
  | Integration                                :        0.063 s           0.063 s
  | Solution of K.-S. eqns.                    :        0.011 s           0.011 s
  | Total energy evaluation                    :        0.000 s           0.000 s

  Partial memory accounting:
  | Current value for overall tracked memory usage:
  |   Minimum:        0.625 MB (on task 24)
  |   Maximum:        0.654 MB (on task  0)
  |   Average:        0.640 MB
  | Peak value for overall tracked memory usage:
  |   Minimum:        2.996 MB (on task 28 after allocating wave)
  |   Maximum:        3.121 MB (on task  9 after allocating wave)
  |   Average:        3.069 MB
  | Largest tracked array allocation so far:
  |   Minimum:        1.332 MB (gradient_basis_wave on task  8)
  |   Maximum:        1.392 MB (gradient_basis_wave on task  9)
  |   Average:        1.369 MB
  Note:  These values currently only include a subset of arrays which are explicitly tracked.
  The "true" memory usage will be greater.
------------------------------------------------------------

------------------------------------------------------------
          Begin self-consistency iteration #    3

  Date     :  20210628, Time     :  160452.611
------------------------------------------------------------
  Pulay mixing of updated and previous charge densities.
  Renormalizing the density to the exact electron count on the 3D integration grid.
  | Formal number of electrons (from input files) :     128.0000000000
  | Integrated number of electrons on 3D grid     :     128.0000000000
  | Charge integration error                      :       0.0000000000
  | Normalization factor for density and gradient :       1.0000000000

  Evaluating partitioned Hartree potential by multipole expansion.
  | Original multipole sum: apparent total charge =   0.199568E-13
  | Sum of charges compensated after spline to logarithmic grids =   0.948981E-06
  | Analytical far-field extrapolation by fixed multipoles:
  | Hartree multipole sum: apparent total charge =   0.199191E-13
  Summing up the Hartree potential.
  Time summed over all CPUs for potential: real work        0.822 s, elapsed        0.857 s
  | RMS charge density error from multipole expansion :   0.549737E-02

  Integrating Hamiltonian matrix: batch-based integration.
  Time summed over all CPUs for integration: real work        2.318 s, elapsed        2.463 s

  Updating Kohn-Sham eigenvalues and eigenvectors using ELSI and the ELPA eigensolver.
  Starting ELPA eigensolver
  Finished transformation to standard eigenproblem
  | Time :     0.001 s
  Finished solving standard eigenproblem
  | Time :     0.007 s
  Finished back-transformation of eigenvectors
  | Time :     0.001 s

  Obtaining occupation numbers and chemical potential using ELSI.
  | Chemical potential (Fermi level):    -5.23180907 eV
  Highest occupied state (VBM) at     -6.47000963 eV
  | Occupation number:      2.00000000

  Lowest unoccupied state (CBM) at    -3.22596234 eV
  | Occupation number:      0.00000000

  Overall HOMO-LUMO gap:      3.24404729 eV.

  Total energy components:
  | Sum of eigenvalues            :       -1840.53252218 Ha      -50083.43814580 eV
  | XC energy correction          :        -205.04558336 Ha       -5579.57420887 eV
  | XC potential correction       :         265.00776983 Ha        7211.22832022 eV
  | Free-atom electrostatic energy:       -1415.64948135 Ha      -38521.78235434 eV
  | Hartree energy correction     :          -2.12341163 Ha         -57.78097037 eV
  | Entropy correction            :           0.00000000 Ha           0.00000000 eV
  | ---------------------------
  | Total energy                  :       -3198.34322870 Ha      -87031.34735916 eV
  | Total energy, T -> 0          :       -3198.34322870 Ha      -87031.34735916 eV  <-- do not rely on this value for anything but (periodic) metals
  | Electronic free energy        :       -3198.34322870 Ha      -87031.34735916 eV

  Derived energy quantities:
  | Kinetic energy                :        3210.17433190 Ha       87353.28805741 eV
  | Electrostatic energy          :       -6203.47197724 Ha     -168805.06120771 eV
  | Energy correction for multipole
  | error in Hartree potential    :          -0.00310745 Ha          -0.08455814 eV
  | Sum of eigenvalues per atom                           :       -6260.42976823 eV
  | Total energy (T->0) per atom                          :      -10878.91841990 eV  <-- do not rely on this value for anything but (periodic) metals
  | Electronic free energy per atom                       :      -10878.91841990 eV
  Evaluating new KS density.
  Integration grid: deviation in total charge (<rho> - N_e) =   5.684342E-14

  Self-consistency convergence accuracy:
  | Change of charge density      :  0.2686E-01
  | Change of sum of eigenvalues  : -0.3420E+02 eV
  | Change of total energy        :  0.1281E-01 eV


------------------------------------------------------------
  End self-consistency iteration #     3       :  max(cpu_time)    wall_clock(cpu1)
  | Time for this iteration                    :        0.146 s           0.146 s
  | Charge density update                      :        0.047 s           0.047 s
  | Density mixing                             :        0.001 s           0.001 s
  | Hartree multipole update                   :        0.003 s           0.002 s
  | Hartree multipole summation                :        0.022 s           0.022 s
[...]
   Multipole                     :  0.198185E-01  0.125303E-01  0.660151E-01
   Hartree pot. SCF incomplete   : -0.167584E-03 -0.513128E-04  0.187821E-03
   Pulay + GGA                   : -0.236957E+02 -0.826282E+01  0.222237E+02
   ----------------------------------------------------------------
   Total forces(   2)            : -0.206274E-01  0.412533E-02  0.102485E-01
  atom #    3
   Hellmann-Feynman              :  0.409145E+01  0.198389E+02  0.267678E+02
   Ionic forces                  :  0.000000E+00  0.000000E+00  0.000000E+00
   Multipole                     :  0.222850E-01  0.305235E-01 -0.591315E-01
   Hartree pot. SCF incomplete   : -0.162837E-04 -0.135200E-03 -0.232983E-03
   Pulay + GGA                   : -0.410254E+01 -0.198773E+02 -0.267170E+02
   ----------------------------------------------------------------
   Total forces(   3)            :  0.111765E-01 -0.807303E-02 -0.861084E-02
  atom #    4
   Hellmann-Feynman              : -0.408740E+01  0.198857E+02 -0.267610E+02
   Ionic forces                  :  0.000000E+00  0.000000E+00  0.000000E+00
   Multipole                     : -0.221779E-01  0.303452E-01  0.594630E-01
   Hartree pot. SCF incomplete   :  0.184263E-04 -0.134918E-03  0.215323E-03
   Pulay + GGA                   :  0.411485E+01 -0.199167E+02  0.267029E+02
   ----------------------------------------------------------------
   Total forces(   4)            :  0.529496E-02 -0.767889E-03  0.155656E-02
  atom #    5
   Hellmann-Feynman              : -0.155751E+02 -0.823163E+01 -0.286005E+02
   Ionic forces                  :  0.000000E+00  0.000000E+00  0.000000E+00
   Multipole                     : -0.398174E-01 -0.126902E-01  0.566387E-01
   Hartree pot. SCF incomplete   :  0.983332E-04  0.541549E-04  0.233968E-03
   Pulay + GGA                   :  0.156141E+02  0.824407E+01  0.285430E+02
   ----------------------------------------------------------------
   Total forces(   5)            : -0.719425E-03 -0.197478E-03 -0.615492E-03
  atom #    6
   Hellmann-Feynman              : -0.121806E+02 -0.198728E+02  0.241734E+02
   Ionic forces                  :  0.000000E+00  0.000000E+00  0.000000E+00
   Multipole                     : -0.272652E-02 -0.304556E-01 -0.633426E-01
   Hartree pot. SCF incomplete   :  0.894525E-04  0.131796E-03 -0.210832E-03
   Pulay + GGA                   :  0.121834E+02  0.199044E+02 -0.241098E+02
   ----------------------------------------------------------------
   Total forces(   6)            :  0.167598E-03  0.122544E-02  0.121562E-03
  atom #    7
   Hellmann-Feynman              :  0.121865E+02 -0.198815E+02 -0.241676E+02
   Ionic forces                  :  0.000000E+00  0.000000E+00  0.000000E+00
   Multipole                     :  0.269755E-02 -0.303853E-01  0.634477E-01
   Hartree pot. SCF incomplete   : -0.894008E-04  0.132148E-03  0.204397E-03
   Pulay + GGA                   : -0.121884E+02  0.199124E+02  0.241030E+02
   ----------------------------------------------------------------
   Total forces(   7)            :  0.759544E-03  0.650365E-03 -0.934104E-03
  atom #    8
   Hellmann-Feynman              : -0.236708E+02  0.823089E+01  0.223473E+02
   Ionic forces                  :  0.000000E+00  0.000000E+00  0.000000E+00
   Multipole                     : -0.203725E-01  0.126195E-01 -0.660878E-01
   Hartree pot. SCF incomplete   :  0.166414E-03 -0.529061E-04 -0.200718E-03
   Pulay + GGA                   :  0.236913E+02 -0.824432E+01 -0.222807E+02
   ----------------------------------------------------------------
   Total forces(   8)            :  0.317986E-03 -0.863533E-03  0.289841E-03


  Self-consistency convergence accuracy:
  | Change of charge density      :  0.2519E-05
  | Change of sum of eigenvalues  :  0.4393E-04 eV
  | Change of total energy        :  0.3185E-07 eV
  | Change of forces              :  0.1109E+01 eV/A

  Writing Kohn-Sham eigenvalues.

  State    Occupation    Eigenvalue [Ha]    Eigenvalue [eV]
      1       2.00000         -88.678521        -2413.06534
      2       2.00000         -88.678498        -2413.06470
      3       2.00000         -88.678492        -2413.06454
      4       2.00000         -88.678479        -2413.06419
      5       2.00000         -88.678476        -2413.06411
      6       2.00000         -88.678474        -2413.06404
      7       2.00000         -88.678465        -2413.06381
      8       2.00000         -88.678441        -2413.06315
      9       2.00000          -7.780061         -211.70622
     10       2.00000          -7.780050         -211.70592
     11       2.00000          -7.780038         -211.70562
     12       2.00000          -7.780016         -211.70502
     13       2.00000          -7.780005         -211.70471
     14       2.00000          -7.779987         -211.70422
     15       2.00000          -7.779978         -211.70397
     16       2.00000          -7.779951         -211.70323
     17       2.00000          -5.754918         -156.59930
     18       2.00000          -5.754880         -156.59825
     19       2.00000          -5.754865         -156.59786
     20       2.00000          -5.754767         -156.59517
     21       2.00000          -5.754750         -156.59471
     22       2.00000          -5.754649         -156.59196
     23       2.00000          -5.754634         -156.59155
     24       2.00000          -5.754594         -156.59047
     25       2.00000          -5.751181         -156.49760
     26       2.00000          -5.751162         -156.49709
     27       2.00000          -5.751150         -156.49676
     28       2.00000          -5.751102         -156.49545
     29       2.00000          -5.751086         -156.49500
     30       2.00000          -5.751042         -156.49382
     31       2.00000          -5.751028         -156.49345
     32       2.00000          -5.751010         -156.49293
     33       2.00000          -5.744169         -156.30679
     34       2.00000          -5.744143         -156.30609
     35       2.00000          -5.744132         -156.30580
     36       2.00000          -5.744129         -156.30571
     37       2.00000          -5.744128         -156.30567
     38       2.00000          -5.744124         -156.30557
     39       2.00000          -5.744120         -156.30546
     40       2.00000          -5.744074         -156.30422
     41       2.00000          -0.804143          -21.88183
     42       2.00000          -0.775219          -21.09479
     43       2.00000          -0.775082          -21.09104
     44       2.00000          -0.698638          -19.01090
     45       2.00000          -0.698522          -19.00774
     46       2.00000          -0.594343          -16.17290
     47       2.00000          -0.594232          -16.16988
     48       2.00000          -0.522743          -14.22456
     49       2.00000          -0.434661          -11.82772
     50       2.00000          -0.407981          -11.10172
     51       2.00000          -0.407959          -11.10112
     52       2.00000          -0.376252          -10.23833
     53       2.00000          -0.350776           -9.54509
     54       2.00000          -0.350711           -9.54332
     55       2.00000          -0.345112           -9.39097
     56       2.00000          -0.345066           -9.38972
     57       2.00000          -0.310431           -8.44725
     58       2.00000          -0.258062           -7.02222
     59       2.00000          -0.258039           -7.02161
     60       2.00000          -0.251555           -6.84516
     61       2.00000          -0.251481           -6.84315
     62       2.00000          -0.242937           -6.61065
     63       2.00000          -0.242882           -6.60916
     64       2.00000          -0.237213           -6.45491
     65       0.00000          -0.117812           -3.20582
     66       0.00000          -0.117753           -3.20422
     67       0.00000          -0.104212           -2.83575
     68       0.00000          -0.071404           -1.94299
     69       0.00000          -0.069710           -1.89691
     70       0.00000          -0.069629           -1.89471
     71       0.00000          -0.066565           -1.81133
     72       0.00000          -0.066457           -1.80838
     73       0.00000           0.042808            1.16485
     74       0.00000           0.063493            1.72774
     75       0.00000           0.063533            1.72883
     76       0.00000           0.077517            2.10935
     77       0.00000           0.077535            2.10982
     78       0.00000           0.090133            2.45265
     79       0.00000           0.090157            2.45329
     80       0.00000           0.102226            2.78172
     81       0.00000           0.105742            2.87737
     82       0.00000           0.108177            2.94364
     83       0.00000           0.129287            3.51808
     84       0.00000           0.131513            3.57864
     85       0.00000           0.131533            3.57920
     86       0.00000           0.136323            3.70953
     87       0.00000           0.136381            3.71111
     88       0.00000           0.155174            4.22249

  Highest occupied state (VBM) at     -6.45490548 eV
  | Occupation number:      2.00000000

  Lowest unoccupied state (CBM) at    -3.20582361 eV
  | Occupation number:      0.00000000

  Overall HOMO-LUMO gap:      3.24908187 eV.
  | Chemical Potential                          :    -5.22003994 eV

  Self-consistency cycle converged.


------------------------------------------------------------
  End self-consistency iteration #    12       :  max(cpu_time)    wall_clock(cpu1)
  | Time for this iteration                    :        0.437 s           0.437 s
  | Charge density & force component update    :        0.240 s           0.240 s
  | Density mixing                             :        0.003 s           0.003 s
  | Hartree multipole update                   :        0.002 s           0.003 s
  | Hartree multipole summation                :        0.071 s           0.070 s
  | Hartree pot. SCF incomplete forces         :        0.047 s           0.047 s
  | Integration                                :        0.063 s           0.063 s
  | Solution of K.-S. eqns.                    :        0.009 s           0.009 s
  | Total energy evaluation                    :        0.000 s           0.000 s

  Partial memory accounting:
  | Current value for overall tracked memory usage:
  |   Minimum:        0.628 MB (on task 24)
  |   Maximum:        0.658 MB (on task  0)
  |   Average:        0.643 MB
  | Peak value for overall tracked memory usage:
  |   Minimum:        5.566 MB (on task 28 after allocating hessian_basis_wave)
  |   Maximum:        5.763 MB (on task  9 after allocating hessian_basis_wave)
  |   Average:        5.682 MB
  | Largest tracked array allocation so far:
  |   Minimum:        2.664 MB (hessian_basis_wave on task  8)
  |   Maximum:        2.783 MB (hessian_basis_wave on task  9)
  |   Average:        2.738 MB
  Note:  These values currently only include a subset of arrays which are explicitly tracked.
  The "true" memory usage will be greater.
------------------------------------------------------------
  Removing unitary transformations (pure translations, rotations) from forces on atoms.
  Atomic forces before filtering:
  | Net force on center of mass :  -0.306168E-05 -0.881773E-04  0.115219E-04 eV/A
  | Net torque on center of mass:   0.557377E-05 -0.175509E-03  0.151558E-04 eV
  Atomic forces after filtering:
  | Net force on center of mass :   0.130669E-18  0.174225E-17 -0.100179E-17 eV/A
  | Net torque on center of mass:  -0.382612E-17  0.193611E-17 -0.198221E-17 eV

  Energy and forces in a compact form:
  | Total energy uncorrected      :         -0.870313469292994E+05 eV
  | Total energy corrected        :         -0.870313469292994E+05 eV  <-- do not rely on this value for anything but (periodic) metals
  | Electronic free energy        :         -0.870313469292994E+05 eV
  Total atomic forces (unitary forces cleaned) [eV/Ang]:
  |    1          0.363316632535949E-02          0.382311129579079E-02         -0.206059560290940E-02
  |    2         -0.206276925582356E-01          0.413551840553281E-02          0.102307370147408E-01
  |    3          0.111820886803994E-01         -0.806213769614246E-02         -0.861873171781568E-02
  |    4          0.529169689687462E-02         -0.756739745988707E-03          0.156040499765453E-02
  |    5         -0.725244710731819E-03         -0.185929546269131E-03         -0.601752201433685E-03
  |    6          0.169590867501955E-03          0.123690132460920E-02          0.127666504533190E-03
  |    7          0.756749753553184E-03          0.660950200360081E-03         -0.941910255752920E-03
  |    8          0.319644745278803E-03         -0.851674237892568E-03          0.304181260983178E-03

  ------------------------------------ 
  Start decomposition of the XC Energy 
  ------------------------------------ 
  X and C from original XC functional choice 
  Hartree-Fock Energy :          0.000000000 Ha              0.000000000 eV
  X Energy            :       -200.051495041 Ha          -5443.678151369 eV
  C Energy            :         -5.002773662 Ha           -136.132397677 eV
  Total XC Energy     :       -205.054268703 Ha          -5579.810549045 eV
  ------------------------------------ 
  LDA X and C from self-consistent density 
  X Energy LDA        :       -185.462384150 Ha          -5046.688245399 eV
  C Energy LDA        :         -9.954267200 Ha           -270.869392191 eV
  ------------------------------------ 
  End decomposition of the XC Energy 
  ------------------------------------ 

------------------------------------------------------------

------------------------------------------------------------------------------
  Final output of selected total energy values:

  The following output summarizes some interesting total energy values
  at the end of a run (AFTER all relaxation, molecular dynamics, etc.).

  | Total energy of the DFT / Hartree-Fock s.c.f. calculation      :         -87031.346929299 eV
  | Final zero-broadening corrected energy (caution - metals only) :         -87031.346929299 eV
  | For reference only, the value of 1 Hartree used in FHI-aims is :             27.211384500 eV

  Before relying on these values, please be sure to understand exactly which
  total energy value is referred to by a given number. Different objects may
  all carry the same name 'total energy'. Definitions:

  Total energy of the DFT / Hartree-Fock s.c.f. calculation:
  | Note that this energy does not include ANY quantities calculated after the
  | s.c.f. cycle, in particular not ANY RPA, MP2, etc. many-body perturbation terms.

  Final zero-broadening corrected energy:
  | For metallic systems only, a broadening of the occupation numbers at the Fermi
  | level can be extrapolated back to zero broadening by an electron-gas inspired
  | formula. For all systems that are not real metals, this value can be
  | meaningless and should be avoided.

------------------------------------------------------------------------------
  Methods described in the following list of references were used in this FHI-aims run.
  If you publish the results, please make sure to cite these reference if they apply.
  FHI-aims is an academic code, and for our developers (often, Ph.D. students
  and postdocs), scientific credit in the community is essential.
  Thank you for helping us!

  For any use of FHI-aims, please cite:

    Volker Blum, Ralf Gehrke, Felix Hanke, Paula Havu, Ville Havu,
    Xinguo Ren, Karsten Reuter, and Matthias Scheffler
    'Ab initio molecular simulations with numeric atom-centered orbitals'
    Computer Physics Communications 180, 2175-2196 (2009)
    http://dx.doi.org/10.1016/j.cpc.2009.06.022


  The ELSI infrastructure was used in your run to solve the Kohn-Sham electronic structure.
  Please check out http://elsi-interchange.org to learn more.
  If scalability is important for your project, please acknowledge ELSI by citing:

    V. W-z. Yu, F. Corsetti, A. Garcia, W. P. Huhn, M. Jacquelin, W. Jia,
    B. Lange, L. Lin, J. Lu, W. Mi, A. Seifitokaldani, A. Vazquez-Mayagoitia,
    C. Yang, H. Yang, and V. Blum
    'ELSI: A unified software interface for Kohn-Sham electronic structure solvers'
    Computer Physics Communications 222, 267-285 (2018).
    http://dx.doi.org/10.1016/j.cpc.2017.09.007


  For the real-space grid partitioning and parallelization used in this calculation, please cite:

    Ville Havu, Volker Blum, Paula Havu, and Matthias Scheffler,
    'Efficient O(N) integration for all-electron electronic structure calculation'
    'using numerically tabulated basis functions'
    Journal of Computational Physics 228, 8367-8379 (2009).
    http://dx.doi.org/10.1016/j.jcp.2009.08.008

  Of course, there are many other important community references, e.g., those cited in the
  above references. Our list is limited to references that describe implementations in the
  FHI-aims code. The reason is purely practical (length of this list) - please credit others as well.

------------------------------------------------------------
          Leaving FHI-aims.
          Date     :  20210628, Time     :  160454.380

          Computational steps:
          | Number of self-consistency cycles          :           12
          | Number of SCF (re)initializations          :            1

          Detailed time accounting                     :  max(cpu_time)    wall_clock(cpu1)
          | Total time                                 :        2.857 s           2.864 s
          | Preparation time                           :        0.435 s           0.442 s
          | Boundary condition initalization           :        0.000 s           0.000 s
          | Grid partitioning                          :        0.090 s           0.090 s
          | Preloading free-atom quantities on grid    :        0.020 s           0.020 s
          | Free-atom superposition energy             :        0.005 s           0.005 s
          | Total time for integrations                :        0.844 s           0.846 s
          | Total time for solution of K.-S. equations :        0.152 s           0.155 s
          | Total time for density & force components  :        0.801 s           0.804 s
          | Total time for mixing                      :        0.023 s           0.022 s
          | Total time for Hartree multipole update    :        0.030 s           0.029 s
          | Total time for Hartree multipole sum       :        0.312 s           0.312 s
          | Total time for total energy evaluation     :        0.003 s           0.001 s
          | Total time NSC force correction            :        0.047 s           0.047 s
          | Total time for scaled ZORA corrections     :        0.000 s           0.000 s

          Partial memory accounting:
          | Residual value for overall tracked memory usage across tasks:     0.000000 MB (should be 0.000000 MB)
          | Peak values for overall tracked memory usage:
          |   Minimum:        5.566 MB (on task 28 after allocating hessian_basis_wave)
          |   Maximum:        5.763 MB (on task  9 after allocating hessian_basis_wave)
          |   Average:        5.682 MB
          | Largest tracked array allocation:
          |   Minimum:        2.664 MB (hessian_basis_wave on task  8)
          |   Maximum:        2.783 MB (hessian_basis_wave on task  9)
          |   Average:        2.738 MB
          Note:  These values currently only include a subset of arrays which are explicitly tracked.
          The "true" memory usage will be greater.

          Have a nice day.
------------------------------------------------------------
