------------------------------------------------------------
          Invoking FHI-aims ...

          When using FHI-aims, please cite the following reference:

            Volker Blum, Ralf Gehrke, Felix Hanke, Paula Havu,
            Ville Havu, Xinguo Ren, Karsten Reuter, and Matthias Scheffler,
            'Ab Initio Molecular Simulations with Numeric Atom-Centered Orbitals',
            Computer Physics Communications 180, 2175-2196 (2009)

          In addition, many other developments in FHI-aims are likely important for
          your particular application. A partial list of references is given at the end of
          this file. Thank you for giving credit to the authors of these developments.

          For any questions about FHI-aims, please visit our slack channel at

            https://fhi-aims.slack.com

          and our main development and support site at

            https://aims-git.rz-berlin.mpg.de .

          The latter site, in particular, has a wiki to collect information, as well
          as an issue tracker to log discussions, suggest improvements, and report issues
          or bugs. https://aims-git.rz-berlin.mpg.de is also the main development site
          of the project and all new and updated code versions can be obtained there.
          Please send an email to aims-coordinators@fhi-berlin.mpg.de and we will add
          you to these sites. They are for you and everyone is welcome there.

------------------------------------------------------------



  Date     :  20220117, Time     :  113727.010
  Time zero on CPU 1             :   0.243224900000000E+01  s.
  Internal wall clock time zero  :           411651447.010  s.

  FHI-aims created a unique identifier for this run for later identification
  aims_uuid : 8337DF3E-C3E4-4511-AD0F-4BD513D46FD5

  Build configuration of the current instance of FHI-aims
  -------------------------------------------------------
  FHI-aims version      : 211206
  Commit number         : 89e815567
  CMake host system     : Linux-5.3.18-24.86-default
  CMake version         : 3.22.0
  Fortran compiler      : /mpcdf/soft/SLE_15/packages/x86_64/intel_parallel_studio/2020.2/compilers_and_libraries_2020.2.254/linux/mpi/intel64/bin/mpiifort (Intel) version 19.1.2.20200623
  Fortran compiler flags: -O3 -ip -fp-model precise
  C compiler            : /mpcdf/soft/SLE_15/packages/x86_64/intel/19.1.2/bin/icc (Intel) version 19.1.2.20200623
  C compiler flags      : -O3 -ip -fp-model precise
  C++ compiler          : /mpcdf/soft/SLE_15/packages/x86_64/intel/19.1.2/bin/icpc (Intel) version 19.1.2.20200623
  C++ compiler flags    : -O3 -ip -fp-model precise
  Using MPI
  Using ScaLAPACK
  Using LibXC
  Using i-PI
  Using RLSY
  Linking against: /mpcdf/soft/SLE_15/packages/x86_64/intel_oneapi/2021.2/mkl/latest/lib/intel64/libmkl_intel_lp64.so
                   /mpcdf/soft/SLE_15/packages/x86_64/intel_oneapi/2021.2/mkl/latest/lib/intel64/libmkl_sequential.so
                   /mpcdf/soft/SLE_15/packages/x86_64/intel_oneapi/2021.2/mkl/latest/lib/intel64/libmkl_core.so
                   /mpcdf/soft/SLE_15/packages/x86_64/intel_oneapi/2021.2/mkl/latest/lib/intel64/libmkl_blacs_intelmpi_lp64.so
                   /mpcdf/soft/SLE_15/packages/x86_64/intel_oneapi/2021.2/mkl/latest/lib/intel64/libmkl_scalapack_lp64.so

  Using      216 parallel tasks.
  Task        0 on host ravg1135 reporting.
  Task        1 on host ravg1135 reporting.
  Task        2 on host ravg1135 reporting.
  Task        3 on host ravg1135 reporting.
  Task        4 on host ravg1135 reporting.
  Task        5 on host ravg1135 reporting.
  Task        6 on host ravg1135 reporting.
  Task        7 on host ravg1135 reporting.
  Task        8 on host ravg1135 reporting.
  Task        9 on host ravg1135 reporting.
  Task       10 on host ravg1135 reporting.
  Task       11 on host ravg1135 reporting.
  Task       12 on host ravg1135 reporting.
  Task       13 on host ravg1135 reporting.
  Task       14 on host ravg1135 reporting.
  Task       15 on host ravg1135 reporting.
  Task       16 on host ravg1135 reporting.
  Task       17 on host ravg1135 reporting.
  Task       18 on host ravg1135 reporting.
  Task       19 on host ravg1135 reporting.
  Task       20 on host ravg1135 reporting.
  Task       21 on host ravg1135 reporting.
  Task       22 on host ravg1135 reporting.
  Task       23 on host ravg1135 reporting.
  Task       24 on host ravg1135 reporting.
  Task       25 on host ravg1135 reporting.
  Task       26 on host ravg1135 reporting.
  Task       27 on host ravg1135 reporting.
  Task       28 on host ravg1135 reporting.
  Task       29 on host ravg1135 reporting.
  Task       30 on host ravg1135 reporting.
  Task       31 on host ravg1135 reporting.
  Task       32 on host ravg1135 reporting.
  Task       33 on host ravg1135 reporting.
  Task       34 on host ravg1135 reporting.
  Task       35 on host ravg1135 reporting.
  Task       36 on host ravg1135 reporting.
  Task       37 on host ravg1135 reporting.
  Task       38 on host ravg1135 reporting.
  Task       39 on host ravg1135 reporting.
  Task       40 on host ravg1135 reporting.
  Task       41 on host ravg1135 reporting.
  Task       42 on host ravg1135 reporting.
  Task       43 on host ravg1135 reporting.
  Task       44 on host ravg1135 reporting.
  Task       45 on host ravg1135 reporting.
  Task       46 on host ravg1135 reporting.
  Task       47 on host ravg1135 reporting.
  Task       48 on host ravg1135 reporting.
  Task       49 on host ravg1135 reporting.
  Task       50 on host ravg1135 reporting.
  Task       51 on host ravg1135 reporting.
  Task       52 on host ravg1135 reporting.
  Task       53 on host ravg1135 reporting.
  Task       54 on host ravg1135 reporting.
  Task       55 on host ravg1135 reporting.
  Task       56 on host ravg1135 reporting.
  Task       57 on host ravg1135 reporting.
  Task       58 on host ravg1135 reporting.
  Task       59 on host ravg1135 reporting.
  Task       60 on host ravg1135 reporting.
  Task       61 on host ravg1135 reporting.
  Task       62 on host ravg1135 reporting.
  Task       63 on host ravg1135 reporting.
  Task       64 on host ravg1135 reporting.
  Task       65 on host ravg1135 reporting.
  Task       66 on host ravg1135 reporting.
  Task       67 on host ravg1135 reporting.
  Task       68 on host ravg1135 reporting.
  Task       69 on host ravg1135 reporting.
  Task       70 on host ravg1135 reporting.
  Task       71 on host ravg1135 reporting.
  Task       72 on host ravg1136 reporting.
  Task       73 on host ravg1136 reporting.
  Task       74 on host ravg1136 reporting.
  Task       75 on host ravg1136 reporting.
  Task       76 on host ravg1136 reporting.
  Task       77 on host ravg1136 reporting.
  Task       78 on host ravg1136 reporting.
  Task       79 on host ravg1136 reporting.
  Task       80 on host ravg1136 reporting.
  Task       81 on host ravg1136 reporting.
  Task       82 on host ravg1136 reporting.
  Task       83 on host ravg1136 reporting.
  Task       84 on host ravg1136 reporting.
  Task       85 on host ravg1136 reporting.
  Task       86 on host ravg1136 reporting.
  Task       87 on host ravg1136 reporting.
  Task       88 on host ravg1136 reporting.
  Task       89 on host ravg1136 reporting.
  Task       90 on host ravg1136 reporting.
  Task       91 on host ravg1136 reporting.
  Task       92 on host ravg1136 reporting.
  Task       93 on host ravg1136 reporting.
  Task       94 on host ravg1136 reporting.
  Task       95 on host ravg1136 reporting.
  Task       96 on host ravg1136 reporting.
  Task       97 on host ravg1136 reporting.
  Task       98 on host ravg1136 reporting.
  Task       99 on host ravg1136 reporting.
  Task      100 on host ravg1136 reporting.
  Task      101 on host ravg1136 reporting.
  Task      102 on host ravg1136 reporting.
  Task      103 on host ravg1136 reporting.
  Task      104 on host ravg1136 reporting.
  Task      105 on host ravg1136 reporting.
  Task      106 on host ravg1136 reporting.
  Task      107 on host ravg1136 reporting.
  Task      108 on host ravg1136 reporting.
  Task      109 on host ravg1136 reporting.
  Task      110 on host ravg1136 reporting.
  Task      111 on host ravg1136 reporting.
  Task      112 on host ravg1136 reporting.
  Task      113 on host ravg1136 reporting.
  Task      114 on host ravg1136 reporting.
  Task      115 on host ravg1136 reporting.
  Task      116 on host ravg1136 reporting.
  Task      117 on host ravg1136 reporting.
  Task      118 on host ravg1136 reporting.
  Task      119 on host ravg1136 reporting.
  Task      120 on host ravg1136 reporting.
  Task      121 on host ravg1136 reporting.
  Task      122 on host ravg1136 reporting.
  Task      123 on host ravg1136 reporting.
  Task      124 on host ravg1136 reporting.
  Task      125 on host ravg1136 reporting.
  Task      126 on host ravg1136 reporting.
  Task      127 on host ravg1136 reporting.
  Task      128 on host ravg1136 reporting.
  Task      129 on host ravg1136 reporting.
  Task      130 on host ravg1136 reporting.
  Task      131 on host ravg1136 reporting.
  Task      132 on host ravg1136 reporting.
  Task      133 on host ravg1136 reporting.
  Task      134 on host ravg1136 reporting.
  Task      135 on host ravg1136 reporting.
  Task      136 on host ravg1136 reporting.
  Task      137 on host ravg1136 reporting.
  Task      138 on host ravg1136 reporting.
  Task      139 on host ravg1136 reporting.
  Task      140 on host ravg1136 reporting.
  Task      141 on host ravg1136 reporting.
  Task      142 on host ravg1136 reporting.
  Task      143 on host ravg1136 reporting.
  Task      144 on host ravg1139 reporting.
  Task      145 on host ravg1139 reporting.
  Task      146 on host ravg1139 reporting.
  Task      147 on host ravg1139 reporting.
  Task      148 on host ravg1139 reporting.
  Task      149 on host ravg1139 reporting.
  Task      150 on host ravg1139 reporting.
  Task      151 on host ravg1139 reporting.
  Task      152 on host ravg1139 reporting.
  Task      153 on host ravg1139 reporting.
  Task      154 on host ravg1139 reporting.
  Task      155 on host ravg1139 reporting.
  Task      156 on host ravg1139 reporting.
  Task      157 on host ravg1139 reporting.
  Task      158 on host ravg1139 reporting.
  Task      159 on host ravg1139 reporting.
  Task      160 on host ravg1139 reporting.
  Task      161 on host ravg1139 reporting.
  Task      162 on host ravg1139 reporting.
  Task      163 on host ravg1139 reporting.
  Task      164 on host ravg1139 reporting.
  Task      165 on host ravg1139 reporting.
  Task      166 on host ravg1139 reporting.
  Task      167 on host ravg1139 reporting.
  Task      168 on host ravg1139 reporting.
  Task      169 on host ravg1139 reporting.
  Task      170 on host ravg1139 reporting.
  Task      171 on host ravg1139 reporting.
  Task      172 on host ravg1139 reporting.
  Task      173 on host ravg1139 reporting.
  Task      174 on host ravg1139 reporting.
  Task      175 on host ravg1139 reporting.
  Task      176 on host ravg1139 reporting.
  Task      177 on host ravg1139 reporting.
  Task      178 on host ravg1139 reporting.
  Task      179 on host ravg1139 reporting.
  Task      180 on host ravg1139 reporting.
  Task      181 on host ravg1139 reporting.
  Task      182 on host ravg1139 reporting.
  Task      183 on host ravg1139 reporting.
  Task      184 on host ravg1139 reporting.
  Task      185 on host ravg1139 reporting.
  Task      186 on host ravg1139 reporting.
  Task      187 on host ravg1139 reporting.
  Task      188 on host ravg1139 reporting.
  Task      189 on host ravg1139 reporting.
  Task      190 on host ravg1139 reporting.
  Task      191 on host ravg1139 reporting.
  Task      192 on host ravg1139 reporting.
  Task      193 on host ravg1139 reporting.
  Task      194 on host ravg1139 reporting.
  Task      195 on host ravg1139 reporting.
  Task      196 on host ravg1139 reporting.
  Task      197 on host ravg1139 reporting.
  Task      198 on host ravg1139 reporting.
  Task      199 on host ravg1139 reporting.
  Task      200 on host ravg1139 reporting.
  Task      201 on host ravg1139 reporting.
  Task      202 on host ravg1139 reporting.
  Task      203 on host ravg1139 reporting.
  Task      204 on host ravg1139 reporting.
  Task      205 on host ravg1139 reporting.
  Task      206 on host ravg1139 reporting.
  Task      207 on host ravg1139 reporting.
  Task      208 on host ravg1139 reporting.
  Task      209 on host ravg1139 reporting.
  Task      210 on host ravg1139 reporting.
  Task      211 on host ravg1139 reporting.
  Task      212 on host ravg1139 reporting.
  Task      213 on host ravg1139 reporting.
  Task      214 on host ravg1139 reporting.
  Task      215 on host ravg1139 reporting.

  Performing system and environment tests:
  | Environment variable OMP_NUM_THREADS correctly set to 1.
  | Checking for ScaLAPACK...
  | Testing pdtran()...
  | All pdtran() tests passed.

  Obtaining array dimensions for all initial allocations:
  
  -----------------------------------------------------------------------
  Parsing control.in (first pass over file, find array dimensions only).
  The contents of control.in will be repeated verbatim below
  unless switched off by setting 'verbatim_writeout .false.' .
  in the first line of control.in .
  -----------------------------------------------------------------------
  
  ##### Physical settings  ################
  xc                 pbe
  spin               none
  charge      0.0
  relativistic       atomic_zora scalar
  #elsi_restart read
  # SCF settings
  #use_symmetric_forces .true.
  #relax_geometry trm 1E-3
  
  #relax_unit_cell full
  
  
  
  #vdw_correction_hirshfeld
  harmonic_length_scale 0.09
  energy_tolerance  1E-3
  occupation_type gaussian       0.01
  # k-grid settings  (to be adjusted)
  k_grid  4 4 1
  #empty_states 8
  use_dipole_correction
  include_spin_orbit non_self_consistent
  
  output dos_tetrahedron -10 0 1001 0.1
  output atom_proj_dos_tetrahedron -10 0 1001 0.1
  output species_proj_dos_tetrahedron -10 0 1001 0.1
  mixer   pulay
  n_max_pulay        12 # high for metal
  charge_mix_param   0.1 #low for metal
  many_body_dispersion_nl    beta=0.81
  #many_body_dispersion_nl    beta=0.81 do_rpa=.true. rpa_rescale_eigs=.true. parallel_mode=k_points
  ################################################################################
  #
  #  FHI-aims code project
  # Volker Blum, Fritz Haber Institute Berlin, 2009
  #
  #  Suggested "tight" defaults for S atom (to be pasted into control.in file)
  #
  #  Revised Jan 04, 2011, following tests (SiC) done by Lydia Nemec:
  #     d and g functions of tier 2 now enabled by default.
  #
  ################################################################################
    species        S_add
  #     global species definitions
      nucleus             16
      mass                32.065
  #
      l_hartree           6
  #
      cut_pot             5.0          2.0  1.0
      basis_dep_cutoff    1e-4
  #
      radial_base         44 7.0
      radial_multiplier   2
      angular_grids       specified
        division   0.4665  110
        division   0.5810  194
        division   0.7139  302
        division   0.8274  434
  #      division   0.9105  590
  #      division   1.0975  770
  #      division   1.2028  974
  #      outer_grid  974
        outer_grid  434
  ################################################################################
  #
  #  Definition of "minimal" basis
  #
  ################################################################################
  #     valence basis states
      valence      3  s   2.
      valence      3  p   4.
  #     ion occupancy
      ion_occ      3  s   1.
      ion_occ      3  p   3.
  ################################################################################
  #
  #  Suggested additional basis functions. For production calculations,
  #  uncomment them one after another (the most important basis functions are
  #  listed first).
  #
  #  Constructed for dimers: 1.6 A, 1.9 A, 2.5 A, 3.25 A, 4.0 A
  #
  ################################################################################
  #  "First tier" - improvements: -652.81 meV to -45.53 meV
       ionic 3 d auto
       hydro 2 p 1.8
       hydro 4 f 7
       ionic 3 s auto
  #  "Second tier" - improvements: -30.20 meV to -1.74 meV
       hydro 4 d 6.2
       hydro 5 g 10.8
  #     hydro 4 p 4.9
  #     hydro 5 f 10
  #     hydro 1 s 0.8
  #  "Third tier" - improvements: -1.04 meV to -0.20 meV
  #     hydro 3 d 3.9
  #     hydro 3 d 2.7
  #     hydro 5 g 12
  #     hydro 4 p 10.4
  #     hydro 5 f 12.4
  #     hydro 2 s 1.9
  #  "Fourth tier" - improvements: -0.35 meV to -0.06 meV
  #     hydro 4 d 10.4
  #     hydro 4 p 7.2
  #     hydro 4 d 10
  #     hydro 5 g 19.2
  #     hydro 4 s 12
  
  ################################################################################
  ################################################################################
  #
  #  FHI-aims code project
  # Volker Blum, Fritz Haber Institute Berlin, 2009
  #
  #  Suggested "tight" defaults for S atom (to be pasted into control.in file)
  #
  #  Revised Jan 04, 2011, following tests (SiC) done by Lydia Nemec:
  #     d and g functions of tier 2 now enabled by default.
  #
  ################################################################################
    species        S
  #     global species definitions
      nucleus             16
      mass                32.065
  #
      l_hartree           6
  #
      cut_pot             5.0          2.0  1.0
      basis_dep_cutoff    1e-4
  #
      radial_base         44 7.0
      radial_multiplier   2
      angular_grids       specified
        division   0.4665  110
        division   0.5810  194
        division   0.7139  302
        division   0.8274  434
  #      division   0.9105  590
  #      division   1.0975  770
  #      division   1.2028  974
  #      outer_grid  974
        outer_grid  434
  ################################################################################
  #
  #  Definition of "minimal" basis
  #
  ################################################################################
  #     valence basis states
      valence      3  s   2.
      valence      3  p   4.
  #     ion occupancy
      ion_occ      3  s   1.
      ion_occ      3  p   3.
  ################################################################################
  #
  #  Suggested additional basis functions. For production calculations,
  #  uncomment them one after another (the most important basis functions are
  #  listed first).
  #
  #  Constructed for dimers: 1.6 A, 1.9 A, 2.5 A, 3.25 A, 4.0 A
  #
  ################################################################################
  #  "First tier" - improvements: -652.81 meV to -45.53 meV
       ionic 3 d auto
       hydro 2 p 1.8
       hydro 4 f 7
       ionic 3 s auto
  #  "Second tier" - improvements: -30.20 meV to -1.74 meV
       hydro 4 d 6.2
       hydro 5 g 10.8
  #     hydro 4 p 4.9
  #     hydro 5 f 10
  #     hydro 1 s 0.8
  #  "Third tier" - improvements: -1.04 meV to -0.20 meV
  #     hydro 3 d 3.9
  #     hydro 3 d 2.7
  #     hydro 5 g 12
  #     hydro 4 p 10.4
  #     hydro 5 f 12.4
  #     hydro 2 s 1.9
  #  "Fourth tier" - improvements: -0.35 meV to -0.06 meV
  #     hydro 4 d 10.4
  #     hydro 4 p 7.2
  #     hydro 4 d 10
  #     hydro 5 g 19.2
  #     hydro 4 s 12
  
  ################################################################################
  #
  # For methods that use the localized form of the "resolution of identity" for
  # the two-electron Coulomb operator (RI_method LVL), particularly Hartree-Fock and
  # hybrid density functional calculations, the highest accuracy can be obtained by
  # uncommenting the line beginning with "for_aux"  below, thus adding an extra g radial
  # function to the construction of the product basis set for the expansion.
  # See Ref. New J. Phys. 17, 093020 (2015) for more information, particularly Figs. 1 and 6.
  #
  ################################################################################
  #
  # for_aux hydro 5 g 6.0
  ################################################################################
  #
  #  FHI-aims code project
  # Volker Blum, Fritz Haber Institute Berlin, 2009
  #
  #  Suggested "tight" defaults for Mo atom (to be pasted into control.in file)
  #
  ################################################################################
    species        Mo
  #     global species definitions
      nucleus             42
      mass                95.94
  #
      l_hartree           6
  #
      cut_pot             5.0  2.0  1.0
      basis_dep_cutoff    1e-4
  #
      radial_base         59 7.0
      radial_multiplier   2
      angular_grids specified
        division   0.3117   50
        division   0.6750  110
        division   1.0351  194
        division   1.2073  302
        division   1.6402  434
  #      division   1.9185  590
  #      division   2.0237  770
  #      division   2.0980  974
  #      division   2.7972 1202
  #      outer_grid  974
        outer_grid  434
  ################################################################################
  #
  #  Definition of "minimal" basis
  #
  ################################################################################
  #     valence basis states
      valence      5  s   1.
      valence      4  p   6.
      valence      4  d   5.
  #     ion occupancy
      ion_occ     5  s   0.
      ion_occ     4  p   6.
      ion_occ     4  d   4.
  ################################################################################
  #
  #  Suggested additional basis functions. For production calculations,
  #  uncomment them one after another (the most important basis functions are
  #  listed first).
  #
  #  Constructed for dimers: 1.675 A, 1.9 A, 2.375 A, 3.00 A, 4.00 A
  #
  ################################################################################
  #  "First tier"  - max. impr. -711.23  meV, min. impr. -21.07 meV
       hydro 4 f 8.4
       hydro 3 d 2.8
       ionic 5 p auto
       hydro 5 g 12
       ionic 5 s auto
  #  "Second tier" - max. impr. -39.38  meV, min. impr. -2.68 meV
  #     hydro 4 f 12.4
  #     hydro 3 d 3.3
  #     hydro 6 h 17.2
  #     hydro 4 f 7.6
  #     hydro 3 p 3.0
  #     hydro 1 s 0.65
  #  "Third tier"  - max. impr. -5.50 meV, min. impr. -0.47 meV
  #     hydro 4 f 29.2
  #     hydro 5 g 11.2
  #     hydro 3 d 6.8
  #     hydro 6 h 14.8
  #     hydro 2 p 2.3
  #     hydro 4 s 3.8
  #  "Fourth tier"  - max. impr. -0.58 meV, min. impr. -0.19 meV
  #     hydro 5 f 6.8
  #     hydro 5 d 14.8
  #     hydro 6 s 7.8
  #     hydro 5 g 20.8
  #     hydro 5 d 10.4
  #     hydro 5 p 9.8
  #  Further functions - -0.17 meV and below
  #     hydro 5 d 3.2
  ################################################################################
  #
  #  FHI-aims code project
  #  Volker Blum, 2018
  #
  #  Suggested "intermediate" defaults for Se atom (to be pasted into control.in file)
  #
  #  2020/09/15 These "intermediate" settings are identical to past "tight" defaults
  #             and differ only in the "g" function that is now included in "tight".
  #
  ################################################################################
    species        Se
  #     global species definitions
      nucleus             34
      mass                78.96
  #
      l_hartree           6
  #
      cut_pot             4.0          2.0  1.0
      basis_dep_cutoff    1e-4
  #
      radial_base         55 7.0
      radial_multiplier   2
      angular_grids       specified
        division   0.0830  110
        division   0.1357  194
        division   0.7377  302
        division   0.8610  434
  #      division   0.9640  590
  #      division   1.0773  770
  #      division   2.5539  974
  #      outer_grid  974
        outer_grid  434
  ################################################################################
  #
  #  Definition of "minimal" basis
  #
  ################################################################################
  #     valence basis states
      valence      4  s   2.
      valence      4  p   4.
      valence      3  d  10.
  #     ion occupancy
      ion_occ      4  s   1.
      ion_occ      4  p   3.
      ion_occ      3  d  10.
  ################################################################################
  #
  #  Suggested additional basis functions. For production calculations,
  #  uncomment them one after another (the most important basis functions are
  #  listed first).
  #
  #  Constructed for dimers: 1.85 A, 2.15 A, 2.50 A, 3.00 A, 4.00 A
  #
  ################################################################################
  #  "First tier" - improvements: -336.21 meV to -36.85 meV
       hydro 3 d 4.3
       hydro 2 p 1.6
       hydro 4 f 7.2
       ionic 4 s auto
  #  "Second tier" - improvements: -14.39 meV to -1.49 meV
  #     hydro 5 g 10.4
  #     hydro 4 p 4.5
  #     hydro 4 d 6.2
  #     hydro 4 f 11.2
  #     hydro 1 s 0.65
  #     hydro 6 h 15.2
  #  "Third tier" - improvements: -0.46 meV and below
  #     hydro 5 g 14.4
  #     ionic 4 d auto
  #     hydro 4 f 22.4
  #     hydro 5 f 7.4
  #     hydro 5 p 8
  #     hydro 5 s 9.4
  #  "Fourth tier" - improvements: -0.12 meV and below
  #     hydro 5 d 11.6
  #     hydro 6 h 18
  #     hydro 4 p 4
  #     hydro 5 f 16
  #     hydro 4 s 3.9
  
  
  
  -----------------------------------------------------------------------
  Completed first pass over input file control.in .
  -----------------------------------------------------------------------
  
  
  -----------------------------------------------------------------------
  Parsing geometry.in (first pass over file, find array dimensions only).
  The contents of geometry.in will be repeated verbatim below
  unless switched off by setting 'verbatim_writeout .false.' .
  in the first line of geometry.in .
  -----------------------------------------------------------------------
  
  #
  # This is the geometry file that corresponds to the current relaxation step.
  # If you do not want this file to be written, set the "write_restart_geometry" flag to .false.
  #  aims_uuid : 0B98DB52-F400-4395-A407-1691BEB48C1B
  #
    set_vacuum_level        52.565332
  lattice_vector     16.41708800      0.00000000      0.00000000
  lattice_vector     -8.21125790     14.21583190      0.00000000
  lattice_vector      0.00000000      0.00000000     99.89650741
  atom       0.04999828      1.03942871      2.67740595 Mo
  atom       1.69194940      2.02268032      4.33343786 Se
  atom       1.69189666      1.97827564      0.99079302 Se
  atom      -1.57939904      3.89227344      2.67417782 Mo
  atom       0.10539793      4.92079337      4.30577927 Se
  atom       0.03416703      4.83987197      0.95161517 Se
  atom      -3.21101690      6.71706095      2.67407778 Mo
  atom      -1.47787340      7.66162168      4.30568244 Se
  atom      -1.58334787      7.64036295      0.95153190 Se
  atom      -4.86804148      9.55390490      2.67730342 Mo
  atom      -3.19536067     10.48399140      4.33331680 Se
  atom      -3.23383005     10.50619182      0.99073740 Se
  atom      -6.51869043     12.40227593      2.67778062 Mo
  atom      -4.87349239     13.35191200      4.35205767 Se
  atom      -4.87356506     13.35191207      1.00324907 Se
  atom       3.33405950      1.03945393      2.67733371 Mo
  atom       4.96143013      1.99775368      4.36086689 Se
  atom       4.98253540      1.98207020      1.00818276 Se
  atom       1.69146627      3.91472442      2.63059241 Mo
  atom       3.27750872      4.92060979      4.30574826 Se
  atom       3.34857056      4.83994362      0.95166684 Se
  atom       0.13060006      6.76286009      2.57192143 Mo
  atom       1.69093454      7.66357562      0.83642033 Se
  atom      -1.55651863      9.53806428      2.63051342 Mo
  atom       0.10768010     10.40850102      4.30564295 Se
  atom       0.07332177     10.51042343      0.95152981 Se
  atom      -3.22651655     12.39759209      2.67729760 Mo
  atom      -1.58279488     13.32754280      4.36082370 Se
  atom      -1.58582178     13.35370161      1.00815622 Se
  atom       6.61561606      1.02870288      2.69536524 Mo
  atom       8.25421333      1.97461952      4.37811871 Se
  atom       8.26073381      1.97835393      1.02411643 Se
  atom       4.96234730      3.89220538      2.67410304 Mo
  atom       6.59550395      4.83254177      4.36465178 Se
  atom       6.62115122      4.81775682      1.00934915 Se
  atom       3.25128901      6.76285595      2.57204478 Mo
  atom       4.85963866      7.66159079      4.30577423 Se
  atom       4.96506638      7.64042735      0.95167601 Se
  atom       1.69041141      9.46523349      2.57188083 Mo
  atom       3.27289995     10.40833991      4.30577211 Se
  atom       3.30739872     10.51046186      0.95160853 Se
  atom       0.05879037     12.38166899      2.67405691 Mo
  atom       1.68971550     13.32564786      4.36468891 Se
  atom       1.68982896     13.35526724      1.00936460 Se
  atom       9.90061390      1.02503391      2.70050349 Mo
  atom      11.54672056      1.97465574      4.37819938 Se
  atom      11.54033119      1.97836536      1.02419914 Se
  atom       8.25435448      3.87506346      2.70047750 Mo
  atom       9.89994494      4.82569883      4.37811866 Se
  atom       9.89998548      4.81820286      1.02416401 Se
  atom       6.59291289      6.71701466      2.67412499 Mo
  atom       8.23293198      7.66541874      4.36088768 Se
  atom       8.25706667      7.65499282      1.00822824 Se
  atom       4.93736563      9.53809174      2.63061815 Mo
  atom       6.57605606     10.48399040      4.33342436 Se
  atom       6.61447451     10.50624304      0.99086557 Se
  atom       3.32090048     12.38165176      2.67417629 Mo
  atom       4.96234175     13.32751233      4.36097749 Se
  atom       4.96539770     13.35370819      1.00833086 Se
  atom      13.18558112      1.02870040      2.69552191 Mo
  atom      14.83959754      1.99784819      4.36099935 Se
  atom      14.81841836      1.98208440      1.00830006 Se
  atom      11.54574207      3.87506596      2.70051552 Mo
  atom      13.20442629      4.83262878      4.36467752 Se
  atom      13.17880357      4.81771409      1.00939103 Se
  atom       9.89950291      6.71777173      2.69539397 Mo
  atom      11.56592022      7.66542291      4.36086976 Se
  atom      11.54174151      7.65494964      1.00816730 Se
  atom       8.24886625      9.55393602      2.67737246 Mo
  atom       9.89889266     10.50266159      4.35208398 Se
  atom       9.89883581     10.50269468      1.00327026 Se
  atom       6.60629702     12.39758247      2.67743754 Mo
  atom       8.25309244     13.35192787      4.35212073 Se
  atom       8.25303213     13.35194029      1.00336905 Se
  #
  # What follows is the current estimated Hessian matrix constructed by the BFGS algorithm.
  # This is NOT the true Hessian matrix of the system.
  # If you do not want this information here, switch it off using the "hessian_to_restart_geometry" keyword.
  
  -----------------------------------------------------------------------
  Completed first pass over input file geometry.in .
  -----------------------------------------------------------------------
  

  Basic array size parameters:
  | Number of species                 :        4
  | Number of atoms                   :       74
  | Number of lattice vectors         :        3
  | Max. basis fn. angular momentum   :        4
  | Max. atomic/ionic basis occupied n:        5
  | Max. number of basis fn. types    :        3
  | Max. radial fns per species/type  :       10
  | Max. logarithmic grid size        :     1436
  | Max. radial integration grid size :      119
  | Max. angular integration grid size:      434
  | Max. angular grid division number :        8
  | Radial grid for Hartree potential :     1436
  | Number of spin channels           :        1

------------------------------------------------------------
          Reading file control.in.
------------------------------------------------------------
  XC: Using PBE gradient-corrected functionals.
  Spin treatment: No spin polarisation.
  Charge =   0.000000E+00: Neutral system requested explicitly.
  Scalar relativistic treatment of kinetic energy: on-site free-atom approximation to ZORA.
  Assuming qualitatively harmonic for steps shorter than   0.900000E-01 A.
  Max energy increase before discarding BFGS move:   0.100000E-02 eV
  Occupation type: Gaussian broadening, width =   0.100000E-01 eV.
  Found k-point grid:         4         4         1
  Using dipole correction.
  Calculating non-self-consistent second-variational spin-orbit coupling after scf-cycle
  Calculating density of states with
  | energy interval :-10.000000  0.000000
  | points & tetrahedron method :  1001
  Calculating atom-projected density of states with
  | energy interval :-10.000000  0.000000
  | points & tetrahedron :  1001
  Calculating angular-momentum projected DOS with 
  | energy interval :-10.000000  0.000000
  | points & tetrahedron :  1001
  Using pulay charge density mixing.
  Pulay mixing - number of memorized iterations:   12
  Charge density mixing - mixing parameter:     0.1000
  Using libMBD for calculating MBD and TS energies
 
  Reading configuration options for species S_add               .
  | Found nuclear charge :  16.0000
  | Found atomic mass :    32.0650000000000      amu
  | Found l_max for Hartree potential  :   6
  | Found cutoff potl. onset [A], width [A], scale factor :    5.00000    2.00000    1.00000
  | Threshold for basis-dependent cutoff potential is   0.100000E-03
  | Found data for basic radial integration grid :    44 points, outermost radius =    7.000 A
  | Found multiplier for basic radial grid :   2
  | Found angular grid specification: user-specified.
  | Specified grid contains     5 separate shells.
  | Check grid settings after all constraints further below.
  | Found free-atom valence shell :  3 s   2.000
  | Found free-atom valence shell :  3 p   4.000
  | Found free-ion valence shell :  3 s   1.000
  | Found free-ion valence shell :  3 p   3.000
  | Found ionic basis function :  3 d , default cutoff radius.
  | Found hydrogenic basis function :  2 p   1.800
  | Found hydrogenic basis function :  4 f   7.000
  | Found ionic basis function :  3 s , default cutoff radius.
  | Found hydrogenic basis function :  4 d   6.200
  | Found hydrogenic basis function :  5 g  10.800
  Species S_add               : Missing cutoff potential type.
  Defaulting to exp(1/x)/(1-x)^2 type cutoff potential.
  Species S_: No 'logarithmic' tag. Using default grid for free atom:
  | Default logarithmic grid data [bohr] : 0.1000E-03 0.1000E+03 0.1012E+01
  | Will include ionic basis functions of  2.0-fold positive S_add                ion.
  Species S_: On-site basis accuracy parameter (for Gram-Schmidt orthonormalisation) not specified.
  Using default value basis_acc =  0.1000000E-03.
  Species S_add               : Using default innermost maximum threshold i_radial=  2 for radial functions.
  Species S_add               : Default cutoff onset for free atom density etc. : 0.50000000E+01 AA.
  Species S_add               : Basic radial grid will be enhanced according to radial_multiplier =   2, to contain    89 grid points.
 
  Reading configuration options for species S                   .
  | Found nuclear charge :  16.0000
  | Found atomic mass :    32.0650000000000      amu
  | Found l_max for Hartree potential  :   6
  | Found cutoff potl. onset [A], width [A], scale factor :    5.00000    2.00000    1.00000
  | Threshold for basis-dependent cutoff potential is   0.100000E-03
  | Found data for basic radial integration grid :    44 points, outermost radius =    7.000 A
  | Found multiplier for basic radial grid :   2
  | Found angular grid specification: user-specified.
  | Specified grid contains     5 separate shells.
  | Check grid settings after all constraints further below.
  | Found free-atom valence shell :  3 s   2.000
  | Found free-atom valence shell :  3 p   4.000
  | Found free-ion valence shell :  3 s   1.000
  | Found free-ion valence shell :  3 p   3.000
  | Found ionic basis function :  3 d , default cutoff radius.
  | Found hydrogenic basis function :  2 p   1.800
  | Found hydrogenic basis function :  4 f   7.000
  | Found ionic basis function :  3 s , default cutoff radius.
  | Found hydrogenic basis function :  4 d   6.200
  | Found hydrogenic basis function :  5 g  10.800
  Species S                   : Missing cutoff potential type.
  Defaulting to exp(1/x)/(1-x)^2 type cutoff potential.
  Species S : No 'logarithmic' tag. Using default grid for free atom:
  | Default logarithmic grid data [bohr] : 0.1000E-03 0.1000E+03 0.1012E+01
  | Will include ionic basis functions of  2.0-fold positive S                    ion.
  Species S : On-site basis accuracy parameter (for Gram-Schmidt orthonormalisation) not specified.
  Using default value basis_acc =  0.1000000E-03.
  Species S                   : Using default innermost maximum threshold i_radial=  2 for radial functions.
  Species S                   : Default cutoff onset for free atom density etc. : 0.50000000E+01 AA.
  Species S                   : Basic radial grid will be enhanced according to radial_multiplier =   2, to contain    89 grid points.
 
  Reading configuration options for species Mo                  .
  | Found nuclear charge :  42.0000
  | Found atomic mass :    95.9400000000000      amu
  | Found l_max for Hartree potential  :   6
  | Found cutoff potl. onset [A], width [A], scale factor :    5.00000    2.00000    1.00000
  | Threshold for basis-dependent cutoff potential is   0.100000E-03
  | Found data for basic radial integration grid :    59 points, outermost radius =    7.000 A
  | Found multiplier for basic radial grid :   2
  | Found angular grid specification: user-specified.
  | Specified grid contains     6 separate shells.
  | Check grid settings after all constraints further below.
  | Found free-atom valence shell :  5 s   1.000
  | Found free-atom valence shell :  4 p   6.000
  | Found free-atom valence shell :  4 d   5.000
  | Found free-ion valence shell :  5 s   0.000
  | Found free-ion valence shell :  4 p   6.000
  | Found free-ion valence shell :  4 d   4.000
  | Found hydrogenic basis function :  4 f   8.400
  | Found hydrogenic basis function :  3 d   2.800
  | Found ionic basis function :  5 p , default cutoff radius.
  | Found hydrogenic basis function :  5 g  12.000
  | Found ionic basis function :  5 s , default cutoff radius.
  Species Mo                  : Missing cutoff potential type.
  Defaulting to exp(1/x)/(1-x)^2 type cutoff potential.
  Species Mo: No 'logarithmic' tag. Using default grid for free atom:
  | Default logarithmic grid data [bohr] : 0.1000E-03 0.1000E+03 0.1012E+01
  | Will include ionic basis functions of  2.0-fold positive Mo                   ion.
  Species Mo: On-site basis accuracy parameter (for Gram-Schmidt orthonormalisation) not specified.
  Using default value basis_acc =  0.1000000E-03.
  Species Mo                  : Using default innermost maximum threshold i_radial=  2 for radial functions.
  Species Mo                  : Default cutoff onset for free atom density etc. : 0.50000000E+01 AA.
  Species Mo                  : Basic radial grid will be enhanced according to radial_multiplier =   2, to contain   119 grid points.
 
  Reading configuration options for species Se                  .
  | Found nuclear charge :  34.0000
  | Found atomic mass :    78.9600000000000      amu
  | Found l_max for Hartree potential  :   6
  | Found cutoff potl. onset [A], width [A], scale factor :    4.00000    2.00000    1.00000
  | Threshold for basis-dependent cutoff potential is   0.100000E-03
  | Found data for basic radial integration grid :    55 points, outermost radius =    7.000 A
  | Found multiplier for basic radial grid :   2
  | Found angular grid specification: user-specified.
  | Specified grid contains     5 separate shells.
  | Check grid settings after all constraints further below.
  | Found free-atom valence shell :  4 s   2.000
  | Found free-atom valence shell :  4 p   4.000
  | Found free-atom valence shell :  3 d  10.000
  | Found free-ion valence shell :  4 s   1.000
  | Found free-ion valence shell :  4 p   3.000
  | Found free-ion valence shell :  3 d  10.000
  | Found hydrogenic basis function :  3 d   4.300
  | Found hydrogenic basis function :  2 p   1.600
  | Found hydrogenic basis function :  4 f   7.200
  | Found ionic basis function :  4 s , default cutoff radius.
  Species Se                  : Missing cutoff potential type.
  Defaulting to exp(1/x)/(1-x)^2 type cutoff potential.
  Species Se: No 'logarithmic' tag. Using default grid for free atom:
  | Default logarithmic grid data [bohr] : 0.1000E-03 0.1000E+03 0.1012E+01
  | Will include ionic basis functions of  2.0-fold positive Se                   ion.
  Species Se: On-site basis accuracy parameter (for Gram-Schmidt orthonormalisation) not specified.
  Using default value basis_acc =  0.1000000E-03.
  Species Se                  : Using default innermost maximum threshold i_radial=  2 for radial functions.
  Species Se                  : Default cutoff onset for free atom density etc. : 0.40000000E+01 AA.
  Species Se                  : Basic radial grid will be enhanced according to radial_multiplier =   2, to contain   111 grid points.
 
  Finished reading input file 'control.in'.
 
------------------------------------------------------------


------------------------------------------------------------
          Reading geometry description geometry.in.
------------------------------------------------------------
  Vacuum level in z-axis :   0.525653E+02
  | The smallest distance between any two atoms is         2.50155841 AA.
  | The first atom of this pair is atom number                     23 .
  | The second atom of this pair is atom number                    39 .
  | Wigner-Seitz cell of the first atom image           0     0     0 .
  | (The Wigner-Seitz cell of the second atom is 0 0 0  by definition.)

  Symmetry information by spglib:
  | Precision set to  0.1E-04
  | Number of Operations  : 1
  | Space group           : 1
  | International         : P1
  | Schoenflies           : C1^1
  Input structure read successfully.
  The structure contains       74 atoms,  and a total of       2716.000 electrons.

  Input geometry:
  | Unit cell:
  |       16.41708800        0.00000000        0.00000000
  |       -8.21125790       14.21583190        0.00000000
  |        0.00000000        0.00000000       99.89650741
  | Atomic structure:
  |       Atom                x [A]            y [A]            z [A]
  |    1: Species Mo            0.04999828        1.03942871        2.67740595
  |    2: Species Se            1.69194940        2.02268032        4.33343786
  |    3: Species Se            1.69189666        1.97827564        0.99079302
  |    4: Species Mo           -1.57939904        3.89227344        2.67417782
  |    5: Species Se            0.10539793        4.92079337        4.30577927
  |    6: Species Se            0.03416703        4.83987197        0.95161517
  |    7: Species Mo           -3.21101690        6.71706095        2.67407778
  |    8: Species Se           -1.47787340        7.66162168        4.30568244
  |    9: Species Se           -1.58334787        7.64036295        0.95153190
  |   10: Species Mo           -4.86804148        9.55390490        2.67730342
  |   11: Species Se           -3.19536067       10.48399140        4.33331680
  |   12: Species Se           -3.23383005       10.50619182        0.99073740
  |   13: Species Mo           -6.51869043       12.40227593        2.67778062
  |   14: Species Se           -4.87349239       13.35191200        4.35205767
  |   15: Species Se           -4.87356506       13.35191207        1.00324907
  |   16: Species Mo            3.33405950        1.03945393        2.67733371
  |   17: Species Se            4.96143013        1.99775368        4.36086689
  |   18: Species Se            4.98253540        1.98207020        1.00818276
  |   19: Species Mo            1.69146627        3.91472442        2.63059241
  |   20: Species Se            3.27750872        4.92060979        4.30574826
  |   21: Species Se            3.34857056        4.83994362        0.95166684
  |   22: Species Mo            0.13060006        6.76286009        2.57192143
  |   23: Species Se            1.69093454        7.66357562        0.83642033
  |   24: Species Mo           -1.55651863        9.53806428        2.63051342
  |   25: Species Se            0.10768010       10.40850102        4.30564295
  |   26: Species Se            0.07332177       10.51042343        0.95152981
  |   27: Species Mo           -3.22651655       12.39759209        2.67729760
  |   28: Species Se           -1.58279488       13.32754280        4.36082370
  |   29: Species Se           -1.58582178       13.35370161        1.00815622
  |   30: Species Mo            6.61561606        1.02870288        2.69536524
  |   31: Species Se            8.25421333        1.97461952        4.37811871
  |   32: Species Se            8.26073381        1.97835393        1.02411643
  |   33: Species Mo            4.96234730        3.89220538        2.67410304
  |   34: Species Se            6.59550395        4.83254177        4.36465178
  |   35: Species Se            6.62115122        4.81775682        1.00934915
  |   36: Species Mo            3.25128901        6.76285595        2.57204478
  |   37: Species Se            4.85963866        7.66159079        4.30577423
  |   38: Species Se            4.96506638        7.64042735        0.95167601
  |   39: Species Mo            1.69041141        9.46523349        2.57188083
  |   40: Species Se            3.27289995       10.40833991        4.30577211
  |   41: Species Se            3.30739872       10.51046186        0.95160853
  |   42: Species Mo            0.05879037       12.38166899        2.67405691
  |   43: Species Se            1.68971550       13.32564786        4.36468891
  |   44: Species Se            1.68982896       13.35526724        1.00936460
  |   45: Species Mo            9.90061390        1.02503391        2.70050349
  |   46: Species Se           11.54672056        1.97465574        4.37819938
  |   47: Species Se           11.54033119        1.97836536        1.02419914
  |   48: Species Mo            8.25435448        3.87506346        2.70047750
  |   49: Species Se            9.89994494        4.82569883        4.37811866
  |   50: Species Se            9.89998548        4.81820286        1.02416401
  |   51: Species Mo            6.59291289        6.71701466        2.67412499
  |   52: Species Se            8.23293198        7.66541874        4.36088768
  |   53: Species Se            8.25706667        7.65499282        1.00822824
  |   54: Species Mo            4.93736563        9.53809174        2.63061815
  |   55: Species Se            6.57605606       10.48399040        4.33342436
  |   56: Species Se            6.61447451       10.50624304        0.99086557
  |   57: Species Mo            3.32090048       12.38165176        2.67417629
  |   58: Species Se            4.96234175       13.32751233        4.36097749
  |   59: Species Se            4.96539770       13.35370819        1.00833086
  |   60: Species Mo           13.18558112        1.02870040        2.69552191
  |   61: Species Se           14.83959754        1.99784819        4.36099935
  |   62: Species Se           14.81841836        1.98208440        1.00830006
  |   63: Species Mo           11.54574207        3.87506596        2.70051552
  |   64: Species Se           13.20442629        4.83262878        4.36467752
  |   65: Species Se           13.17880357        4.81771409        1.00939103
  |   66: Species Mo            9.89950291        6.71777173        2.69539397
  |   67: Species Se           11.56592022        7.66542291        4.36086976
  |   68: Species Se           11.54174151        7.65494964        1.00816730
  |   69: Species Mo            8.24886625        9.55393602        2.67737246
  |   70: Species Se            9.89889266       10.50266159        4.35208398
  |   71: Species Se            9.89883581       10.50269468        1.00327026
  |   72: Species Mo            6.60629702       12.39758247        2.67743754
  |   73: Species Se            8.25309244       13.35192787        4.35212073
  |   74: Species Se            8.25303213       13.35194029        1.00336905

  Lattice parameters for 3D lattice (in Angstroms) :    16.417088   16.416901   99.896507
  Angle(s) between unit vectors (in degrees)       :    90.000000   90.000000  120.011315


  Quantities derived from the lattice vectors:
  | Reciprocal lattice vector 1:  0.382722  0.221066  0.000000
  | Reciprocal lattice vector 2:  0.000000  0.441985  0.000000
  | Reciprocal lattice vector 3:  0.000000  0.000000  0.062897
  | Unit cell volume                               :   0.233141E+05  A^3

  Fractional coordinates:
                         L1                L2                L3
       atom_frac         0.03961643        0.07311768        0.02680180  Mo
       atom_frac         0.17422560        0.14228364        0.04337927  Se
       atom_frac         0.17266007        0.13916003        0.00991819  Se
       atom_frac         0.04073993        0.27379850        0.02676948  Mo
       atom_frac         0.17955164        0.34614882        0.04310240  Se
       atom_frac         0.17236570        0.34045647        0.00952601  Se
       atom_frac         0.04074102        0.47250565        0.02676848  Mo
       atom_frac         0.17954363        0.53894994        0.04310143  Se
       atom_frac         0.17237099        0.53745451        0.00952518  Se
       atom_frac         0.03961872        0.67206091        0.02680077  Mo
       atom_frac         0.17422916        0.73748701        0.04337806  Se
       atom_frac         0.17266700        0.73904868        0.00991764  Se
       atom_frac         0.03929033        0.87242702        0.02680555  Mo
       atom_frac         0.17291456        0.93922833        0.04356566  Se
       atom_frac         0.17291014        0.93922833        0.01004288  Se
       atom_frac         0.23965652        0.07311946        0.02680107  Mo
       atom_frac         0.37249967        0.14053020        0.04365385  Se
       atom_frac         0.37323343        0.13942696        0.01009227  Se
       atom_frac         0.24076525        0.27537779        0.02633318  Mo
       atom_frac         0.37276525        0.34613590        0.04310209  Se
       atom_frac         0.37425564        0.34046151        0.00952653  Se
       atom_frac         0.24589745        0.47572735        0.02574586  Mo
       atom_frac         0.37263125        0.53908738        0.00837287  Se
       atom_frac         0.24077334        0.67094661        0.02633239  Mo
       atom_frac         0.37276842        0.73217671        0.04310104  Se
       atom_frac         0.37426158        0.73934635        0.00952516  Se
       atom_frac         0.23965890        0.87209754        0.02680071  Mo
       atom_frac         0.37250060        0.93751410        0.04365342  Se
       atom_frac         0.37323659        0.93935421        0.01009201  Se
       atom_frac         0.43916490        0.07236319        0.02698158  Mo
       atom_frac         0.57225620        0.13890285        0.04382654  Se
       atom_frac         0.57278477        0.13916554        0.01025177  Se
       atom_frac         0.43920932        0.27379371        0.02676873  Mo
       atom_frac         0.57177289        0.33994084        0.04369174  Se
       atom_frac         0.57281493        0.33890080        0.01010395  Se
       atom_frac         0.43598515        0.47572706        0.02574709  Mo
       atom_frac         0.56557398        0.53894776        0.04310235  Se
       atom_frac         0.57125120        0.53745904        0.00952662  Se
       atom_frac         0.43598835        0.66582340        0.02574545  Mo
       atom_frac         0.56556307        0.73216538        0.04310233  Se
       atom_frac         0.57125749        0.73934905        0.00952594  Se
       atom_frac         0.43921375        0.87097745        0.02676827  Mo
       atom_frac         0.57176955        0.93738080        0.04369211  Se
       atom_frac         0.57281858        0.93946435        0.01010410  Se
       atom_frac         0.63913207        0.07210510        0.02703301  Mo
       atom_frac         0.77281115        0.13890539        0.04382735  Se
       atom_frac         0.77255247        0.13916634        0.01025260  Se
       atom_frac         0.63912942        0.27258788        0.02703275  Mo
       atom_frac         0.77281271        0.33945947        0.04382654  Se
       atom_frac         0.77255144        0.33893218        0.01025225  Se
       atom_frac         0.63791776        0.47250240        0.02676895  Mo
       atom_frac         0.77118318        0.53921704        0.04365406  Se
       atom_frac         0.77228645        0.53848363        0.01009273  Se
       atom_frac         0.63633070        0.67094855        0.02633343  Mo
       atom_frac         0.76942705        0.73748694        0.04337914  Se
       atom_frac         0.77255013        0.73905228        0.00991892  Se
       atom_frac         0.63791526        0.87097624        0.02676947  Mo
       atom_frac         0.77117782        0.93751195        0.04365495  Se
       atom_frac         0.77228563        0.93935468        0.01009375  Se
       atom_frac         0.83935546        0.07236301        0.02698314  Mo
       atom_frac         0.97420333        0.14053685        0.04365517  Se
       atom_frac         0.97235863        0.13942796        0.01009345  Se
       atom_frac         0.83961497        0.27258805        0.02703313  Mo
       atom_frac         0.97433957        0.33994696        0.04369199  Se
       atom_frac         0.97225408        0.33889780        0.01010437  Se
       atom_frac         0.83935587        0.47255565        0.02698186  Mo
       atom_frac         0.97420278        0.53921733        0.04365388  Se
       atom_frac         0.97236152        0.53848060        0.01009212  Se
       atom_frac         0.83859876        0.67206310        0.02680146  Mo
       atom_frac         0.97248506        0.73880035        0.04356593  Se
       atom_frac         0.97248277        0.73880268        0.01004310  Se
       atom_frac         0.83859630        0.87209687        0.02680211  Mo
       atom_frac         0.97248353        0.93922944        0.04356630  Se
       atom_frac         0.97248029        0.93923032        0.01004409  Se

 
  Finished reading input file 'control.in'.
 

------------------------------------------------------------
          Reading geometry description geometry.in.
------------------------------------------------------------
 
  Consistency checks for stacksize environment parameter are next.
 
  | Maximum stacksize for task 0: unlimited
  | Maximum stacksize for task 1: unlimited
  | Maximum stacksize for task 2: unlimited
  | Maximum stacksize for task 3: unlimited
  | Maximum stacksize for task 4: unlimited
  | Maximum stacksize for task 5: unlimited
  | Maximum stacksize for task 6: unlimited
  | Maximum stacksize for task 7: unlimited
  | Maximum stacksize for task 8: unlimited
  | Maximum stacksize for task 9: unlimited
  | Maximum stacksize for task 10: unlimited
  | Maximum stacksize for task 11: unlimited
  | Maximum stacksize for task 12: unlimited
  | Maximum stacksize for task 13: unlimited
  | Maximum stacksize for task 14: unlimited
  | Maximum stacksize for task 15: unlimited
  | Maximum stacksize for task 16: unlimited
  | Maximum stacksize for task 17: unlimited
  | Maximum stacksize for task 18: unlimited
  | Maximum stacksize for task 19: unlimited
  | Maximum stacksize for task 20: unlimited
  | Maximum stacksize for task 21: unlimited
  | Maximum stacksize for task 22: unlimited
  | Maximum stacksize for task 23: unlimited
  | Maximum stacksize for task 24: unlimited
  | Maximum stacksize for task 25: unlimited
  | Maximum stacksize for task 26: unlimited
  | Maximum stacksize for task 27: unlimited
  | Maximum stacksize for task 28: unlimited
  | Maximum stacksize for task 29: unlimited
  | Maximum stacksize for task 30: unlimited
  | Maximum stacksize for task 31: unlimited
  | Maximum stacksize for task 32: unlimited
  | Maximum stacksize for task 33: unlimited
  | Maximum stacksize for task 34: unlimited
  | Maximum stacksize for task 35: unlimited
  | Maximum stacksize for task 36: unlimited
  | Maximum stacksize for task 37: unlimited
  | Maximum stacksize for task 38: unlimited
  | Maximum stacksize for task 39: unlimited
  | Maximum stacksize for task 40: unlimited
  | Maximum stacksize for task 41: unlimited
  | Maximum stacksize for task 42: unlimited
  | Maximum stacksize for task 43: unlimited
  | Maximum stacksize for task 44: unlimited
  | Maximum stacksize for task 45: unlimited
  | Maximum stacksize for task 46: unlimited
  | Maximum stacksize for task 47: unlimited
  | Maximum stacksize for task 48: unlimited
  | Maximum stacksize for task 49: unlimited
  | Maximum stacksize for task 50: unlimited
  | Maximum stacksize for task 51: unlimited
  | Maximum stacksize for task 52: unlimited
  | Maximum stacksize for task 53: unlimited
  | Maximum stacksize for task 54: unlimited
  | Maximum stacksize for task 55: unlimited
  | Maximum stacksize for task 56: unlimited
  | Maximum stacksize for task 57: unlimited
  | Maximum stacksize for task 58: unlimited
  | Maximum stacksize for task 59: unlimited
  | Maximum stacksize for task 60: unlimited
  | Maximum stacksize for task 61: unlimited
  | Maximum stacksize for task 62: unlimited
  | Maximum stacksize for task 63: unlimited
  | Maximum stacksize for task 64: unlimited
  | Maximum stacksize for task 65: unlimited
  | Maximum stacksize for task 66: unlimited
  | Maximum stacksize for task 67: unlimited
  | Maximum stacksize for task 68: unlimited
  | Maximum stacksize for task 69: unlimited
  | Maximum stacksize for task 70: unlimited
  | Maximum stacksize for task 71: unlimited
  | Maximum stacksize for task 72: unlimited
  | Maximum stacksize for task 73: unlimited
  | Maximum stacksize for task 74: unlimited
  | Maximum stacksize for task 75: unlimited
  | Maximum stacksize for task 76: unlimited
  | Maximum stacksize for task 77: unlimited
  | Maximum stacksize for task 78: unlimited
  | Maximum stacksize for task 79: unlimited
  | Maximum stacksize for task 80: unlimited
  | Maximum stacksize for task 81: unlimited
  | Maximum stacksize for task 82: unlimited
  | Maximum stacksize for task 83: unlimited
  | Maximum stacksize for task 84: unlimited
  | Maximum stacksize for task 85: unlimited
  | Maximum stacksize for task 86: unlimited
  | Maximum stacksize for task 87: unlimited
  | Maximum stacksize for task 88: unlimited
  | Maximum stacksize for task 89: unlimited
  | Maximum stacksize for task 90: unlimited
  | Maximum stacksize for task 91: unlimited
  | Maximum stacksize for task 92: unlimited
  | Maximum stacksize for task 93: unlimited
  | Maximum stacksize for task 94: unlimited
  | Maximum stacksize for task 95: unlimited
  | Maximum stacksize for task 96: unlimited
  | Maximum stacksize for task 97: unlimited
  | Maximum stacksize for task 98: unlimited
  | Maximum stacksize for task 99: unlimited
  | Maximum stacksize for task 100: unlimited
  | Maximum stacksize for task 101: unlimited
  | Maximum stacksize for task 102: unlimited
  | Maximum stacksize for task 103: unlimited
  | Maximum stacksize for task 104: unlimited
  | Maximum stacksize for task 105: unlimited
  | Maximum stacksize for task 106: unlimited
  | Maximum stacksize for task 107: unlimited
  | Maximum stacksize for task 108: unlimited
  | Maximum stacksize for task 109: unlimited
  | Maximum stacksize for task 110: unlimited
  | Maximum stacksize for task 111: unlimited
  | Maximum stacksize for task 112: unlimited
  | Maximum stacksize for task 113: unlimited
  | Maximum stacksize for task 114: unlimited
  | Maximum stacksize for task 115: unlimited
  | Maximum stacksize for task 116: unlimited
  | Maximum stacksize for task 117: unlimited
  | Maximum stacksize for task 118: unlimited
  | Maximum stacksize for task 119: unlimited
  | Maximum stacksize for task 120: unlimited
  | Maximum stacksize for task 121: unlimited
  | Maximum stacksize for task 122: unlimited
  | Maximum stacksize for task 123: unlimited
  | Maximum stacksize for task 124: unlimited
  | Maximum stacksize for task 125: unlimited
  | Maximum stacksize for task 126: unlimited
  | Maximum stacksize for task 127: unlimited
  | Maximum stacksize for task 128: unlimited
  | Maximum stacksize for task 129: unlimited
  | Maximum stacksize for task 130: unlimited
  | Maximum stacksize for task 131: unlimited
  | Maximum stacksize for task 132: unlimited
  | Maximum stacksize for task 133: unlimited
  | Maximum stacksize for task 134: unlimited
  | Maximum stacksize for task 135: unlimited
  | Maximum stacksize for task 136: unlimited
  | Maximum stacksize for task 137: unlimited
  | Maximum stacksize for task 138: unlimited
  | Maximum stacksize for task 139: unlimited
  | Maximum stacksize for task 140: unlimited
  | Maximum stacksize for task 141: unlimited
  | Maximum stacksize for task 142: unlimited
  | Maximum stacksize for task 143: unlimited
  | Maximum stacksize for task 144: unlimited
  | Maximum stacksize for task 145: unlimited
  | Maximum stacksize for task 146: unlimited
  | Maximum stacksize for task 147: unlimited
  | Maximum stacksize for task 148: unlimited
  | Maximum stacksize for task 149: unlimited
  | Maximum stacksize for task 150: unlimited
  | Maximum stacksize for task 151: unlimited
  | Maximum stacksize for task 152: unlimited
  | Maximum stacksize for task 153: unlimited
  | Maximum stacksize for task 154: unlimited
  | Maximum stacksize for task 155: unlimited
  | Maximum stacksize for task 156: unlimited
  | Maximum stacksize for task 157: unlimited
  | Maximum stacksize for task 158: unlimited
  | Maximum stacksize for task 159: unlimited
  | Maximum stacksize for task 160: unlimited
  | Maximum stacksize for task 161: unlimited
  | Maximum stacksize for task 162: unlimited
  | Maximum stacksize for task 163: unlimited
  | Maximum stacksize for task 164: unlimited
  | Maximum stacksize for task 165: unlimited
  | Maximum stacksize for task 166: unlimited
  | Maximum stacksize for task 167: unlimited
  | Maximum stacksize for task 168: unlimited
  | Maximum stacksize for task 169: unlimited
  | Maximum stacksize for task 170: unlimited
  | Maximum stacksize for task 171: unlimited
  | Maximum stacksize for task 172: unlimited
  | Maximum stacksize for task 173: unlimited
  | Maximum stacksize for task 174: unlimited
  | Maximum stacksize for task 175: unlimited
  | Maximum stacksize for task 176: unlimited
  | Maximum stacksize for task 177: unlimited
  | Maximum stacksize for task 178: unlimited
  | Maximum stacksize for task 179: unlimited
  | Maximum stacksize for task 180: unlimited
  | Maximum stacksize for task 181: unlimited
  | Maximum stacksize for task 182: unlimited
  | Maximum stacksize for task 183: unlimited
  | Maximum stacksize for task 184: unlimited
  | Maximum stacksize for task 185: unlimited
  | Maximum stacksize for task 186: unlimited
  | Maximum stacksize for task 187: unlimited
  | Maximum stacksize for task 188: unlimited
  | Maximum stacksize for task 189: unlimited
  | Maximum stacksize for task 190: unlimited
  | Maximum stacksize for task 191: unlimited
  | Maximum stacksize for task 192: unlimited
  | Maximum stacksize for task 193: unlimited
  | Maximum stacksize for task 194: unlimited
  | Maximum stacksize for task 195: unlimited
  | Maximum stacksize for task 196: unlimited
  | Maximum stacksize for task 197: unlimited
  | Maximum stacksize for task 198: unlimited
  | Maximum stacksize for task 199: unlimited
  | Maximum stacksize for task 200: unlimited
  | Maximum stacksize for task 201: unlimited
  | Maximum stacksize for task 202: unlimited
  | Maximum stacksize for task 203: unlimited
  | Maximum stacksize for task 204: unlimited
  | Maximum stacksize for task 205: unlimited
  | Maximum stacksize for task 206: unlimited
  | Maximum stacksize for task 207: unlimited
  | Maximum stacksize for task 208: unlimited
  | Maximum stacksize for task 209: unlimited
  | Maximum stacksize for task 210: unlimited
  | Maximum stacksize for task 211: unlimited
  | Maximum stacksize for task 212: unlimited
  | Maximum stacksize for task 213: unlimited
  | Maximum stacksize for task 214: unlimited
  | Maximum stacksize for task 215: unlimited
  | Current stacksize for task 0: unlimited
  | Current stacksize for task 1: unlimited
  | Current stacksize for task 2: unlimited
  | Current stacksize for task 3: unlimited
  | Current stacksize for task 4: unlimited
  | Current stacksize for task 5: unlimited
  | Current stacksize for task 6: unlimited
  | Current stacksize for task 7: unlimited
  | Current stacksize for task 8: unlimited
  | Current stacksize for task 9: unlimited
  | Current stacksize for task 10: unlimited
  | Current stacksize for task 11: unlimited
  | Current stacksize for task 12: unlimited
  | Current stacksize for task 13: unlimited
  | Current stacksize for task 14: unlimited
  | Current stacksize for task 15: unlimited
  | Current stacksize for task 16: unlimited
  | Current stacksize for task 17: unlimited
  | Current stacksize for task 18: unlimited
  | Current stacksize for task 19: unlimited
  | Current stacksize for task 20: unlimited
  | Current stacksize for task 21: unlimited
  | Current stacksize for task 22: unlimited
  | Current stacksize for task 23: unlimited
  | Current stacksize for task 24: unlimited
  | Current stacksize for task 25: unlimited
  | Current stacksize for task 26: unlimited
  | Current stacksize for task 27: unlimited
  | Current stacksize for task 28: unlimited
  | Current stacksize for task 29: unlimited
  | Current stacksize for task 30: unlimited
  | Current stacksize for task 31: unlimited
  | Current stacksize for task 32: unlimited
  | Current stacksize for task 33: unlimited
  | Current stacksize for task 34: unlimited
  | Current stacksize for task 35: unlimited
  | Current stacksize for task 36: unlimited
  | Current stacksize for task 37: unlimited
  | Current stacksize for task 38: unlimited
  | Current stacksize for task 39: unlimited
  | Current stacksize for task 40: unlimited
  | Current stacksize for task 41: unlimited
  | Current stacksize for task 42: unlimited
  | Current stacksize for task 43: unlimited
  | Current stacksize for task 44: unlimited
  | Current stacksize for task 45: unlimited
  | Current stacksize for task 46: unlimited
  | Current stacksize for task 47: unlimited
  | Current stacksize for task 48: unlimited
  | Current stacksize for task 49: unlimited
  | Current stacksize for task 50: unlimited
  | Current stacksize for task 51: unlimited
  | Current stacksize for task 52: unlimited
  | Current stacksize for task 53: unlimited
  | Current stacksize for task 54: unlimited
  | Current stacksize for task 55: unlimited
  | Current stacksize for task 56: unlimited
  | Current stacksize for task 57: unlimited
  | Current stacksize for task 58: unlimited
  | Current stacksize for task 59: unlimited
  | Current stacksize for task 60: unlimited
  | Current stacksize for task 61: unlimited
  | Current stacksize for task 62: unlimited
  | Current stacksize for task 63: unlimited
  | Current stacksize for task 64: unlimited
  | Current stacksize for task 65: unlimited
  | Current stacksize for task 66: unlimited
  | Current stacksize for task 67: unlimited
  | Current stacksize for task 68: unlimited
  | Current stacksize for task 69: unlimited
  | Current stacksize for task 70: unlimited
  | Current stacksize for task 71: unlimited
  | Current stacksize for task 72: unlimited
  | Current stacksize for task 73: unlimited
  | Current stacksize for task 74: unlimited
  | Current stacksize for task 75: unlimited
  | Current stacksize for task 76: unlimited
  | Current stacksize for task 77: unlimited
  | Current stacksize for task 78: unlimited
  | Current stacksize for task 79: unlimited
  | Current stacksize for task 80: unlimited
  | Current stacksize for task 81: unlimited
  | Current stacksize for task 82: unlimited
  | Current stacksize for task 83: unlimited
  | Current stacksize for task 84: unlimited
  | Current stacksize for task 85: unlimited
  | Current stacksize for task 86: unlimited
  | Current stacksize for task 87: unlimited
  | Current stacksize for task 88: unlimited
  | Current stacksize for task 89: unlimited
  | Current stacksize for task 90: unlimited
  | Current stacksize for task 91: unlimited
  | Current stacksize for task 92: unlimited
  | Current stacksize for task 93: unlimited
  | Current stacksize for task 94: unlimited
  | Current stacksize for task 95: unlimited
  | Current stacksize for task 96: unlimited
  | Current stacksize for task 97: unlimited
  | Current stacksize for task 98: unlimited
  | Current stacksize for task 99: unlimited
  | Current stacksize for task 100: unlimited
  | Current stacksize for task 101: unlimited
  | Current stacksize for task 102: unlimited
  | Current stacksize for task 103: unlimited
  | Current stacksize for task 104: unlimited
  | Current stacksize for task 105: unlimited
  | Current stacksize for task 106: unlimited
  | Current stacksize for task 107: unlimited
  | Current stacksize for task 108: unlimited
  | Current stacksize for task 109: unlimited
  | Current stacksize for task 110: unlimited
  | Current stacksize for task 111: unlimited
  | Current stacksize for task 112: unlimited
  | Current stacksize for task 113: unlimited
  | Current stacksize for task 114: unlimited
  | Current stacksize for task 115: unlimited
  | Current stacksize for task 116: unlimited
  | Current stacksize for task 117: unlimited
  | Current stacksize for task 118: unlimited
  | Current stacksize for task 119: unlimited
  | Current stacksize for task 120: unlimited
  | Current stacksize for task 121: unlimited
  | Current stacksize for task 122: unlimited
  | Current stacksize for task 123: unlimited
  | Current stacksize for task 124: unlimited
  | Current stacksize for task 125: unlimited
  | Current stacksize for task 126: unlimited
  | Current stacksize for task 127: unlimited
  | Current stacksize for task 128: unlimited
  | Current stacksize for task 129: unlimited
  | Current stacksize for task 130: unlimited
  | Current stacksize for task 131: unlimited
  | Current stacksize for task 132: unlimited
  | Current stacksize for task 133: unlimited
  | Current stacksize for task 134: unlimited
  | Current stacksize for task 135: unlimited
  | Current stacksize for task 136: unlimited
  | Current stacksize for task 137: unlimited
  | Current stacksize for task 138: unlimited
  | Current stacksize for task 139: unlimited
  | Current stacksize for task 140: unlimited
  | Current stacksize for task 141: unlimited
  | Current stacksize for task 142: unlimited
  | Current stacksize for task 143: unlimited
  | Current stacksize for task 144: unlimited
  | Current stacksize for task 145: unlimited
  | Current stacksize for task 146: unlimited
  | Current stacksize for task 147: unlimited
  | Current stacksize for task 148: unlimited
  | Current stacksize for task 149: unlimited
  | Current stacksize for task 150: unlimited
  | Current stacksize for task 151: unlimited
  | Current stacksize for task 152: unlimited
  | Current stacksize for task 153: unlimited
  | Current stacksize for task 154: unlimited
  | Current stacksize for task 155: unlimited
  | Current stacksize for task 156: unlimited
  | Current stacksize for task 157: unlimited
  | Current stacksize for task 158: unlimited
  | Current stacksize for task 159: unlimited
  | Current stacksize for task 160: unlimited
  | Current stacksize for task 161: unlimited
  | Current stacksize for task 162: unlimited
  | Current stacksize for task 163: unlimited
  | Current stacksize for task 164: unlimited
  | Current stacksize for task 165: unlimited
  | Current stacksize for task 166: unlimited
  | Current stacksize for task 167: unlimited
  | Current stacksize for task 168: unlimited
  | Current stacksize for task 169: unlimited
  | Current stacksize for task 170: unlimited
  | Current stacksize for task 171: unlimited
  | Current stacksize for task 172: unlimited
  | Current stacksize for task 173: unlimited
  | Current stacksize for task 174: unlimited
  | Current stacksize for task 175: unlimited
  | Current stacksize for task 176: unlimited
  | Current stacksize for task 177: unlimited
  | Current stacksize for task 178: unlimited
  | Current stacksize for task 179: unlimited
  | Current stacksize for task 180: unlimited
  | Current stacksize for task 181: unlimited
  | Current stacksize for task 182: unlimited
  | Current stacksize for task 183: unlimited
  | Current stacksize for task 184: unlimited
  | Current stacksize for task 185: unlimited
  | Current stacksize for task 186: unlimited
  | Current stacksize for task 187: unlimited
  | Current stacksize for task 188: unlimited
  | Current stacksize for task 189: unlimited
  | Current stacksize for task 190: unlimited
  | Current stacksize for task 191: unlimited
  | Current stacksize for task 192: unlimited
  | Current stacksize for task 193: unlimited
  | Current stacksize for task 194: unlimited
  | Current stacksize for task 195: unlimited
  | Current stacksize for task 196: unlimited
  | Current stacksize for task 197: unlimited
  | Current stacksize for task 198: unlimited
  | Current stacksize for task 199: unlimited
  | Current stacksize for task 200: unlimited
  | Current stacksize for task 201: unlimited
  | Current stacksize for task 202: unlimited
  | Current stacksize for task 203: unlimited
  | Current stacksize for task 204: unlimited
  | Current stacksize for task 205: unlimited
  | Current stacksize for task 206: unlimited
  | Current stacksize for task 207: unlimited
  | Current stacksize for task 208: unlimited
  | Current stacksize for task 209: unlimited
  | Current stacksize for task 210: unlimited
  | Current stacksize for task 211: unlimited
  | Current stacksize for task 212: unlimited
  | Current stacksize for task 213: unlimited
  | Current stacksize for task 214: unlimited
  | Current stacksize for task 215: unlimited
 
  Consistency checks for the contents of control.in are next.
 
  MPI_IN_PLACE appears to work with this MPI implementation.
  | Keeping use_mpi_in_place .true. (see manual).
  Target number of points in a grid batch is not set. Defaulting to  100
  Method for grid partitioning is not set. Defaulting to parallel hash+maxmin partitioning.
  Batch size limit is not set. Defaulting to    200
  By default, will store active basis functions for each batch.
  If in need of memory, prune_basis_once .false. can be used to disable this option.
  communication_type for Hartree potential was not specified.
  Defaulting to calc_hartree .
  Pulay mixer: Number of initial linear mixing iterations not set.
  Defaulting to    0 iterations.
  Work space size for distributed Hartree potential not set.
  Defaulting to   0.200000E+03 MB.
  Algorithm-dependent basis array size parameters:
  | n_max_pulay                         :       12
  Maximum number of self-consistency iterations not provided.
  Presetting  1000 iterations.
  Presetting      1001 iterations before the initial mixing cycle
  is restarted anyway using the sc_init_iter criterion / keyword.
  Presetting a factor      1.000 between actual scf density residual
  and density convergence criterion sc_accuracy_rho below which sc_init_iter
  takes no effect.
 * No s.c.f. convergence criteria (sc_accuracy_*) were provided in control.in.
 * The run will proceed with a reasonable default guess, but please check whether.
 * the s.c.f. cycles seem to take too much or too little time.
  Calculation of forces was not defined in control.in. No forces will be calculated.
  Geometry relaxation not requested: no relaxation will be performed.
Requested energy tolerance for BFGS, but no relaxation. Ignoring input.
 * Notice: The s.c.f. convergence criterion sc_accuracy_rho was not provided.
 * We used to stop in this case, and ask the user to provide reasonable
 * scf convergence criteria. However, this led some users to employ criteria
 * that led to extremely long run times, e.g., for simple relaxation.
 * We now preset a default value for sc_accuracy_rho if it is not set.
 * You may still wish to check if this setting is too tight or too loose for your needs.
 * Based on n_atoms and forces and force-correction status, FHI-aims chose sc_accuracy_rho =  0.351188E-05 .
  No accuracy limit for integral partition fn. given. Defaulting to  0.1000E-14.
  No threshold value for u(r) in integrations given. Defaulting to  0.1000E-05.
  No accuracy for occupation numbers given. Defaulting to  0.1000E-12.
  No threshold value for occupation numbers given. Defaulting to  0.0000E+00.
  No accuracy for fermi level given. Defaulting to  0.1000E-19.
  Maximum # of iterations to find E_F not set. Defaulting to  200.
  Preferred method for the eigenvalue solver ('KS_method') not specified in 'control.in'.
  Calling BLACS routine to test compilation state
  Since ScaLAPACK support is enabled, defaulting to ELPA (via ELSI).
  Will not use alltoall communication since running on < 1024 CPUs.
  Threshold for basis singularities not set.
  Default threshold for basis singularities:  0.1000E-04
  partition_type (choice of integration weights) for integrals was not specified.
  | Using a version of the partition function of Stratmann and coworkers ('stratmann_sparse').
  | At each grid point, the set of atoms used to build the partition table is smoothly restricted to
  | only those atoms whose free-atom density would be non-zero at that grid point.
  Partitioning for Hartree potential was not defined. Using partition_type for integrals.
  | Adjusted default value of keyword multip_moments_threshold to:       0.10000000E-11
  | This value may affect high angular momentum components of the Hartree potential in periodic systems.
  Angular momentum expansion for Kerker preconditioner not set explicitly.
  | Using default value of   0
  No explicit requirement for turning off preconditioner.
  | By default, it will be turned off when the charge convergence reaches
  | sc_accuracy_rho  =   0.351188E-05
  No special mixing parameter while Kerker preconditioner is on.
  Using default: charge_mix_param =     0.1000.
  No q(lm)/r^(l+1) cutoff set for long-range Hartree potential.
  | Using default value of  0.100000E-09 .
  | Verify using the multipole_threshold keyword.
  Defaulting to new monopole extrapolation.
  Density update method: automatic selection selected.
  Using density matrix based charge density update.
  Using density matrix based charge density update.
  Using packed matrix style: index .
  Defaulting to use time-reversal symmetry for k-point grid.
  Charge integration errors on the 3D integration grid will be compensated
  by explicit normalization and distribution of residual charges.
  Use the "compensate_multipole_errors" flag to change this behaviour.
 
  Consistency checks for the contents of geometry.in are next.
 

[...]
  | writing   projected DOS (raw data) for species Se to file atom_proj_dos_tetrahedron_Se0020_raw.dat.
  | writing   projected DOS (shifted by the chemical potential) for species Se to file atom_proj_dos_tetrahedron_Se0021.dat.
  | writing   projected DOS (raw data) for species Se to file atom_proj_dos_tetrahedron_Se0021_raw.dat.
  | writing   projected DOS (shifted by the chemical potential) for species Mo to file atom_proj_dos_tetrahedron_Mo0022.dat.
  | writing   projected DOS (raw data) for species Mo to file atom_proj_dos_tetrahedron_Mo0022_raw.dat.
  | writing   projected DOS (shifted by the chemical potential) for species Se to file atom_proj_dos_tetrahedron_Se0023.dat.
  | writing   projected DOS (raw data) for species Se to file atom_proj_dos_tetrahedron_Se0023_raw.dat.
  | writing   projected DOS (shifted by the chemical potential) for species Mo to file atom_proj_dos_tetrahedron_Mo0024.dat.
  | writing   projected DOS (raw data) for species Mo to file atom_proj_dos_tetrahedron_Mo0024_raw.dat.
  | writing   projected DOS (shifted by the chemical potential) for species Se to file atom_proj_dos_tetrahedron_Se0025.dat.
  | writing   projected DOS (raw data) for species Se to file atom_proj_dos_tetrahedron_Se0025_raw.dat.
  | writing   projected DOS (shifted by the chemical potential) for species Se to file atom_proj_dos_tetrahedron_Se0026.dat.
  | writing   projected DOS (raw data) for species Se to file atom_proj_dos_tetrahedron_Se0026_raw.dat.
  | writing   projected DOS (shifted by the chemical potential) for species Mo to file atom_proj_dos_tetrahedron_Mo0027.dat.
  | writing   projected DOS (raw data) for species Mo to file atom_proj_dos_tetrahedron_Mo0027_raw.dat.
  | writing   projected DOS (shifted by the chemical potential) for species Se to file atom_proj_dos_tetrahedron_Se0028.dat.
  | writing   projected DOS (raw data) for species Se to file atom_proj_dos_tetrahedron_Se0028_raw.dat.
  | writing   projected DOS (shifted by the chemical potential) for species Se to file atom_proj_dos_tetrahedron_Se0029.dat.
  | writing   projected DOS (raw data) for species Se to file atom_proj_dos_tetrahedron_Se0029_raw.dat.
  | writing   projected DOS (shifted by the chemical potential) for species Mo to file atom_proj_dos_tetrahedron_Mo0030.dat.
  | writing   projected DOS (raw data) for species Mo to file atom_proj_dos_tetrahedron_Mo0030_raw.dat.
  | writing   projected DOS (shifted by the chemical potential) for species Se to file atom_proj_dos_tetrahedron_Se0031.dat.
  | writing   projected DOS (raw data) for species Se to file atom_proj_dos_tetrahedron_Se0031_raw.dat.
  | writing   projected DOS (shifted by the chemical potential) for species Se to file atom_proj_dos_tetrahedron_Se0032.dat.
  | writing   projected DOS (raw data) for species Se to file atom_proj_dos_tetrahedron_Se0032_raw.dat.
  | writing   projected DOS (shifted by the chemical potential) for species Mo to file atom_proj_dos_tetrahedron_Mo0033.dat.
  | writing   projected DOS (raw data) for species Mo to file atom_proj_dos_tetrahedron_Mo0033_raw.dat.
  | writing   projected DOS (shifted by the chemical potential) for species Se to file atom_proj_dos_tetrahedron_Se0034.dat.
  | writing   projected DOS (raw data) for species Se to file atom_proj_dos_tetrahedron_Se0034_raw.dat.
  | writing   projected DOS (shifted by the chemical potential) for species Se to file atom_proj_dos_tetrahedron_Se0035.dat.
  | writing   projected DOS (raw data) for species Se to file atom_proj_dos_tetrahedron_Se0035_raw.dat.
  | writing   projected DOS (shifted by the chemical potential) for species Mo to file atom_proj_dos_tetrahedron_Mo0036.dat.
  | writing   projected DOS (raw data) for species Mo to file atom_proj_dos_tetrahedron_Mo0036_raw.dat.
  | writing   projected DOS (shifted by the chemical potential) for species Se to file atom_proj_dos_tetrahedron_Se0037.dat.
  | writing   projected DOS (raw data) for species Se to file atom_proj_dos_tetrahedron_Se0037_raw.dat.
  | writing   projected DOS (shifted by the chemical potential) for species Se to file atom_proj_dos_tetrahedron_Se0038.dat.
  | writing   projected DOS (raw data) for species Se to file atom_proj_dos_tetrahedron_Se0038_raw.dat.
  | writing   projected DOS (shifted by the chemical potential) for species Mo to file atom_proj_dos_tetrahedron_Mo0039.dat.
  | writing   projected DOS (raw data) for species Mo to file atom_proj_dos_tetrahedron_Mo0039_raw.dat.
  | writing   projected DOS (shifted by the chemical potential) for species Se to file atom_proj_dos_tetrahedron_Se0040.dat.
  | writing   projected DOS (raw data) for species Se to file atom_proj_dos_tetrahedron_Se0040_raw.dat.
  | writing   projected DOS (shifted by the chemical potential) for species Se to file atom_proj_dos_tetrahedron_Se0041.dat.
  | writing   projected DOS (raw data) for species Se to file atom_proj_dos_tetrahedron_Se0041_raw.dat.
  | writing   projected DOS (shifted by the chemical potential) for species Mo to file atom_proj_dos_tetrahedron_Mo0042.dat.
  | writing   projected DOS (raw data) for species Mo to file atom_proj_dos_tetrahedron_Mo0042_raw.dat.
  | writing   projected DOS (shifted by the chemical potential) for species Se to file atom_proj_dos_tetrahedron_Se0043.dat.
  | writing   projected DOS (raw data) for species Se to file atom_proj_dos_tetrahedron_Se0043_raw.dat.
  | writing   projected DOS (shifted by the chemical potential) for species Se to file atom_proj_dos_tetrahedron_Se0044.dat.
  | writing   projected DOS (raw data) for species Se to file atom_proj_dos_tetrahedron_Se0044_raw.dat.
  | writing   projected DOS (shifted by the chemical potential) for species Mo to file atom_proj_dos_tetrahedron_Mo0045.dat.
  | writing   projected DOS (raw data) for species Mo to file atom_proj_dos_tetrahedron_Mo0045_raw.dat.
  | writing   projected DOS (shifted by the chemical potential) for species Se to file atom_proj_dos_tetrahedron_Se0046.dat.
  | writing   projected DOS (raw data) for species Se to file atom_proj_dos_tetrahedron_Se0046_raw.dat.
  | writing   projected DOS (shifted by the chemical potential) for species Se to file atom_proj_dos_tetrahedron_Se0047.dat.
  | writing   projected DOS (raw data) for species Se to file atom_proj_dos_tetrahedron_Se0047_raw.dat.
  | writing   projected DOS (shifted by the chemical potential) for species Mo to file atom_proj_dos_tetrahedron_Mo0048.dat.
  | writing   projected DOS (raw data) for species Mo to file atom_proj_dos_tetrahedron_Mo0048_raw.dat.
  | writing   projected DOS (shifted by the chemical potential) for species Se to file atom_proj_dos_tetrahedron_Se0049.dat.
  | writing   projected DOS (raw data) for species Se to file atom_proj_dos_tetrahedron_Se0049_raw.dat.
  | writing   projected DOS (shifted by the chemical potential) for species Se to file atom_proj_dos_tetrahedron_Se0050.dat.
  | writing   projected DOS (raw data) for species Se to file atom_proj_dos_tetrahedron_Se0050_raw.dat.
  | writing   projected DOS (shifted by the chemical potential) for species Mo to file atom_proj_dos_tetrahedron_Mo0051.dat.
  | writing   projected DOS (raw data) for species Mo to file atom_proj_dos_tetrahedron_Mo0051_raw.dat.
  | writing   projected DOS (shifted by the chemical potential) for species Se to file atom_proj_dos_tetrahedron_Se0052.dat.
  | writing   projected DOS (raw data) for species Se to file atom_proj_dos_tetrahedron_Se0052_raw.dat.
  | writing   projected DOS (shifted by the chemical potential) for species Se to file atom_proj_dos_tetrahedron_Se0053.dat.
  | writing   projected DOS (raw data) for species Se to file atom_proj_dos_tetrahedron_Se0053_raw.dat.
  | writing   projected DOS (shifted by the chemical potential) for species Mo to file atom_proj_dos_tetrahedron_Mo0054.dat.
  | writing   projected DOS (raw data) for species Mo to file atom_proj_dos_tetrahedron_Mo0054_raw.dat.
  | writing   projected DOS (shifted by the chemical potential) for species Se to file atom_proj_dos_tetrahedron_Se0055.dat.
  | writing   projected DOS (raw data) for species Se to file atom_proj_dos_tetrahedron_Se0055_raw.dat.
  | writing   projected DOS (shifted by the chemical potential) for species Se to file atom_proj_dos_tetrahedron_Se0056.dat.
  | writing   projected DOS (raw data) for species Se to file atom_proj_dos_tetrahedron_Se0056_raw.dat.
  | writing   projected DOS (shifted by the chemical potential) for species Mo to file atom_proj_dos_tetrahedron_Mo0057.dat.
  | writing   projected DOS (raw data) for species Mo to file atom_proj_dos_tetrahedron_Mo0057_raw.dat.
  | writing   projected DOS (shifted by the chemical potential) for species Se to file atom_proj_dos_tetrahedron_Se0058.dat.
  | writing   projected DOS (raw data) for species Se to file atom_proj_dos_tetrahedron_Se0058_raw.dat.
  | writing   projected DOS (shifted by the chemical potential) for species Se to file atom_proj_dos_tetrahedron_Se0059.dat.
  | writing   projected DOS (raw data) for species Se to file atom_proj_dos_tetrahedron_Se0059_raw.dat.
  | writing   projected DOS (shifted by the chemical potential) for species Mo to file atom_proj_dos_tetrahedron_Mo0060.dat.
  | writing   projected DOS (raw data) for species Mo to file atom_proj_dos_tetrahedron_Mo0060_raw.dat.
  | writing   projected DOS (shifted by the chemical potential) for species Se to file atom_proj_dos_tetrahedron_Se0061.dat.
  | writing   projected DOS (raw data) for species Se to file atom_proj_dos_tetrahedron_Se0061_raw.dat.
  | writing   projected DOS (shifted by the chemical potential) for species Se to file atom_proj_dos_tetrahedron_Se0062.dat.
  | writing   projected DOS (raw data) for species Se to file atom_proj_dos_tetrahedron_Se0062_raw.dat.
  | writing   projected DOS (shifted by the chemical potential) for species Mo to file atom_proj_dos_tetrahedron_Mo0063.dat.
  | writing   projected DOS (raw data) for species Mo to file atom_proj_dos_tetrahedron_Mo0063_raw.dat.
  | writing   projected DOS (shifted by the chemical potential) for species Se to file atom_proj_dos_tetrahedron_Se0064.dat.
  | writing   projected DOS (raw data) for species Se to file atom_proj_dos_tetrahedron_Se0064_raw.dat.
  | writing   projected DOS (shifted by the chemical potential) for species Se to file atom_proj_dos_tetrahedron_Se0065.dat.
  | writing   projected DOS (raw data) for species Se to file atom_proj_dos_tetrahedron_Se0065_raw.dat.
  | writing   projected DOS (shifted by the chemical potential) for species Mo to file atom_proj_dos_tetrahedron_Mo0066.dat.
  | writing   projected DOS (raw data) for species Mo to file atom_proj_dos_tetrahedron_Mo0066_raw.dat.
  | writing   projected DOS (shifted by the chemical potential) for species Se to file atom_proj_dos_tetrahedron_Se0067.dat.
  | writing   projected DOS (raw data) for species Se to file atom_proj_dos_tetrahedron_Se0067_raw.dat.
  | writing   projected DOS (shifted by the chemical potential) for species Se to file atom_proj_dos_tetrahedron_Se0068.dat.
  | writing   projected DOS (raw data) for species Se to file atom_proj_dos_tetrahedron_Se0068_raw.dat.
  | writing   projected DOS (shifted by the chemical potential) for species Mo to file atom_proj_dos_tetrahedron_Mo0069.dat.
  | writing   projected DOS (raw data) for species Mo to file atom_proj_dos_tetrahedron_Mo0069_raw.dat.
  | writing   projected DOS (shifted by the chemical potential) for species Se to file atom_proj_dos_tetrahedron_Se0070.dat.
  | writing   projected DOS (raw data) for species Se to file atom_proj_dos_tetrahedron_Se0070_raw.dat.
  | writing   projected DOS (shifted by the chemical potential) for species Se to file atom_proj_dos_tetrahedron_Se0071.dat.
  | writing   projected DOS (raw data) for species Se to file atom_proj_dos_tetrahedron_Se0071_raw.dat.
  | writing   projected DOS (shifted by the chemical potential) for species Mo to file atom_proj_dos_tetrahedron_Mo0072.dat.
  | writing   projected DOS (raw data) for species Mo to file atom_proj_dos_tetrahedron_Mo0072_raw.dat.
  | writing   projected DOS (shifted by the chemical potential) for species Se to file atom_proj_dos_tetrahedron_Se0073.dat.
  | writing   projected DOS (raw data) for species Se to file atom_proj_dos_tetrahedron_Se0073_raw.dat.
  | writing   projected DOS (shifted by the chemical potential) for species Se to file atom_proj_dos_tetrahedron_Se0074.dat.
  | writing   projected DOS (raw data) for species Se to file atom_proj_dos_tetrahedron_Se0074_raw.dat.

  Mulliken analysis                                       :  max(cpu_time)    wall_clock(cpu1)
  | Time for Mulliken analysis (scalar relativistic)      :          1.131               1.512
  | Time for Mulliken analysis (spin-orbit coupled)       :          2.885               3.099
  | Total time for Mulliken analysis                      :          4.016               4.611
------------------------------------------------------------

------------------------------------------------------------------------------
  Final output of selected total energy values:

  The following output summarizes some interesting total energy values
  at the end of a run (AFTER all relaxation, molecular dynamics, etc.).

  | Total energy of the DFT / Hartree-Fock s.c.f. calculation      :       -6041769.294933686 eV
  | Final zero-broadening corrected energy (caution - metals only) :       -6041769.294933686 eV
  | Total energy after non-SC SOC correction (DO NOT USE)          :       -6041773.600446815 eV
  | For reference only, the value of 1 Hartree used in FHI-aims is :             27.211384500 eV
  | For reference only, the overall average (free atom contribution
  | + realspace contribution) of the electrostatic potential after
  | s.c.f. convergence is                                          :             -1.246839881 eV

  Before relying on these values, please be sure to understand exactly which
  total energy value is referred to by a given number. Different objects may
  all carry the same name 'total energy'. Definitions:

  Total energy of the DFT / Hartree-Fock s.c.f. calculation:
  | Note that this energy does not include ANY quantities calculated after the
  | s.c.f. cycle, in particular not ANY RPA, MP2, etc. many-body perturbation terms.

  Final zero-broadening corrected energy:
  | For metallic systems only, a broadening of the occupation numbers at the Fermi
  | level can be extrapolated back to zero broadening by an electron-gas inspired
  | formula. For all systems that are not real metals, this value can be
  | meaningless and should be avoided.

------------------------------------------------------------------------------
  Methods described in the following list of references were used in this FHI-aims run.
  If you publish the results, please make sure to cite these reference if they apply.
  FHI-aims is an academic code, and for our developers (often, Ph.D. students
  and postdocs), scientific credit in the community is essential.
  Thank you for helping us!

  For any use of FHI-aims, please cite:

    Volker Blum, Ralf Gehrke, Felix Hanke, Paula Havu, Ville Havu,
    Xinguo Ren, Karsten Reuter, and Matthias Scheffler
    'Ab initio molecular simulations with numeric atom-centered orbitals'
    Computer Physics Communications 180, 2175-2196 (2009)
    http://dx.doi.org/10.1016/j.cpc.2009.06.022


  The provided symmetry information was generated with SPGlib:

    Atsushi Togo, Yusuke Seto, Dimitar Pashov
    SPGlib 1.7.3 obtained from http://spglib.sourceforge.net
    Copyright (C) 2008 Atsushi Togo


  For second-variational spin-orbit coupling used in your run, please cite:

    William P. Huhn and Volker Blum,
    'One-hundred-three compound band-structure benchmark of post-self-consistent'
    'spin-orbit coupling treatments in density functional theory'
    Phys. Rev. Materials 1, 033803 (2017).


  The ELSI infrastructure was used in your run to solve the Kohn-Sham electronic structure.
  Please check out http://elsi-interchange.org to learn more.
  If scalability is important for your project, please acknowledge ELSI by citing:

    V. W-z. Yu, F. Corsetti, A. Garcia, W. P. Huhn, M. Jacquelin, W. Jia,
    B. Lange, L. Lin, J. Lu, W. Mi, A. Seifitokaldani, A. Vazquez-Mayagoitia,
    C. Yang, H. Yang, and V. Blum
    'ELSI: A unified software interface for Kohn-Sham electronic structure solvers'
    Computer Physics Communications 222, 267-285 (2018).
    http://dx.doi.org/10.1016/j.cpc.2017.09.007


  For the real-space grid partitioning and parallelization used in this calculation, please cite:

    Ville Havu, Volker Blum, Paula Havu, and Matthias Scheffler,
    'Efficient O(N) integration for all-electron electronic structure calculation'
    'using numerically tabulated basis functions'
    Journal of Computational Physics 228, 8367-8379 (2009).
    http://dx.doi.org/10.1016/j.jcp.2009.08.008

  Of course, there are many other important community references, e.g., those cited in the
  above references. Our list is limited to references that describe implementations in the
  FHI-aims code. The reason is purely practical (length of this list) - please credit others as well.

------------------------------------------------------------
          Leaving FHI-aims.
          Date     :  20220117, Time     :  114117.671

          Computational steps:
          | Number of self-consistency cycles          :           24
          | Number of SCF (re)initializations          :            1

          Detailed time accounting                     :  max(cpu_time)    wall_clock(cpu1)
          | Total time                                  :      230.386 s         230.661 s
          | Preparation time                            :        0.778 s           0.792 s
          | Boundary condition initalization            :        0.859 s           0.863 s
          | Grid partitioning                           :        1.029 s           1.030 s
          | Preloading free-atom quantities on grid     :        0.498 s           0.512 s
          | Free-atom superposition energy              :        0.054 s           0.054 s
          | Total time for integrations                 :       32.900 s          32.900 s
          | Total time for solution of K.-S. equations  :       52.379 s          52.391 s
          | Total time for density update               :       62.019 s          62.018 s
          | Total time for mixing & preconditioning     :        7.345 s           7.213 s
          | Total time for Hartree multipole update     :        0.249 s           0.250 s
          | Total time for Hartree multipole sum        :       34.820 s          34.820 s
          | Total time for total energy evaluation      :        0.024 s           0.023 s
          | Total time for scaled ZORA corrections      :        0.000 s           0.000 s
          | Total time for vdW correction               :        4.109 s           4.107 s
          | Total time for perturbative SOC             :       22.328 s          22.328 s
          | Total time for Mulliken analysis            :        4.118 s           4.611 s

          Partial memory accounting:
          | Residual value for overall tracked memory usage across tasks:     0.000000 MB (should be 0.000000 MB)
          | Peak values for overall tracked memory usage:
          |   Minimum:      245.183 MB (on task  21 after allocating potential_shell)
          |   Maximum:      251.346 MB (on task  47 after allocating potential_shell)
          |   Average:      248.134 MB
          | Largest tracked array allocation:
          |   Minimum:       90.985 MB (soc_matrix on task   0)
          |   Maximum:       90.985 MB (soc_matrix on task   0)
          |   Average:       90.985 MB
          Note:  These values currently only include a subset of arrays which are explicitly tracked.
          The "true" memory usage will be greater.

          Have a nice day.
------------------------------------------------------------
