------------------------------------------------------------
          Invoking FHI-aims ...

          When using FHI-aims, please cite the following reference:

            Volker Blum, Ralf Gehrke, Felix Hanke, Paula Havu,
            Ville Havu, Xinguo Ren, Karsten Reuter, and Matthias Scheffler,
            'Ab Initio Molecular Simulations with Numeric Atom-Centered Orbitals',
            Computer Physics Communications 180, 2175-2196 (2009)

          In addition, many other developments in FHI-aims are likely important for
          your particular application. A partial list of references is given at the end of
          this file. Thank you for giving credit to the authors of these developments.

          For any questions about FHI-aims, please visit our slack channel at

            https://fhi-aims.slack.com

          and our main development and support site at

            https://aims-git.rz-berlin.mpg.de .

          The latter site, in particular, has a wiki to collect information, as well
          as an issue tracker to log discussions, suggest improvements, and report issues
          or bugs. https://aims-git.rz-berlin.mpg.de is also the main development site
          of the project and all new and updated code versions can be obtained there.
          Please send an email to aims-coordinators@fhi-berlin.mpg.de and we will add
          you to these sites. They are for you and everyone is welcome there.

------------------------------------------------------------



  Date     :  20210913, Time     :  222413.398
  Time zero on CPU 1             :   0.127315000000000E+00  s.
  Internal wall clock time zero  :           400803853.398  s.

  FHI-aims created a unique identifier for this run for later identification
  aims_uuid : B4F9ED8C-5AB2-4A3B-A350-71BE8A663F97

  Build configuration of the current instance of FHI-aims
  -------------------------------------------------------
  FHI-aims version      : 210413
  Commit number         : e4873593e
  CMake host system     : Linux-4.12.14-122.57-default
  CMake version         : 3.5.2
  Fortran compiler      : /mpcdf/soft/SLE_12/packages/x86_64/intel_parallel_studio/2020.1/compilers_and_libraries_2020.1.217/linux/mpi/intel64/bin/mpiifort (Intel) version 19.1.0.20200306
  Fortran compiler flags: -O3 -ip -fp-model precise
  C compiler            : /mpcdf/soft/SLE_12/packages/x86_64/intel/19.1.1/bin/icc (Intel) version 19.1.0.20200306
  C compiler flags      : -O3 -ip -fp-model precise -std=gnu99
  C++ compiler          : /mpcdf/soft/SLE_12/packages/x86_64/intel/19.1.1/bin/icpc (Intel) version 19.1.0.20200306
  C++ compiler flags    : -O3 -ip -fp-model precise -std=gnu99
  Using MPI
  Using ScaLAPACK
  Using LibXC
  Using i-PI
  Using RLSY
  Linking against: /mpcdf/soft/SLE_12/packages/x86_64/intel_parallel_studio/2020.1/mkl/lib/intel64/libmkl_intel_lp64.so
                   /mpcdf/soft/SLE_12/packages/x86_64/intel_parallel_studio/2020.1/mkl/lib/intel64/libmkl_sequential.so
                   /mpcdf/soft/SLE_12/packages/x86_64/intel_parallel_studio/2020.1/mkl/lib/intel64/libmkl_core.so
                   /mpcdf/soft/SLE_12/packages/x86_64/intel_parallel_studio/2020.1/mkl/lib/intel64/libmkl_blacs_intelmpi_lp64.so
                   /mpcdf/soft/SLE_12/packages/x86_64/intel_parallel_studio/2020.1/mkl/lib/intel64/libmkl_scalapack_lp64.so

  Using       80 parallel tasks.
  Task        0 on host co1069 reporting.
  Task        1 on host co1069 reporting.
  Task        2 on host co1069 reporting.
  Task        3 on host co1069 reporting.
  Task        4 on host co1069 reporting.
  Task        5 on host co1069 reporting.
  Task        6 on host co1069 reporting.
  Task        7 on host co1069 reporting.
  Task        8 on host co1069 reporting.
  Task        9 on host co1069 reporting.
  Task       10 on host co1069 reporting.
  Task       11 on host co1069 reporting.
  Task       12 on host co1069 reporting.
  Task       13 on host co1069 reporting.
  Task       14 on host co1069 reporting.
  Task       15 on host co1069 reporting.
  Task       16 on host co1069 reporting.
  Task       17 on host co1069 reporting.
  Task       18 on host co1069 reporting.
  Task       19 on host co1069 reporting.
  Task       20 on host co1069 reporting.
  Task       21 on host co1069 reporting.
  Task       22 on host co1069 reporting.
  Task       23 on host co1069 reporting.
  Task       24 on host co1069 reporting.
  Task       25 on host co1069 reporting.
  Task       26 on host co1069 reporting.
  Task       27 on host co1069 reporting.
  Task       28 on host co1069 reporting.
  Task       29 on host co1069 reporting.
  Task       30 on host co1069 reporting.
  Task       31 on host co1069 reporting.
  Task       32 on host co1069 reporting.
  Task       33 on host co1069 reporting.
  Task       34 on host co1069 reporting.
  Task       35 on host co1069 reporting.
  Task       36 on host co1069 reporting.
  Task       37 on host co1069 reporting.
  Task       38 on host co1069 reporting.
  Task       39 on host co1069 reporting.
  Task       40 on host co1070 reporting.
  Task       41 on host co1070 reporting.
  Task       42 on host co1070 reporting.
  Task       43 on host co1070 reporting.
  Task       44 on host co1070 reporting.
  Task       45 on host co1070 reporting.
  Task       46 on host co1070 reporting.
  Task       47 on host co1070 reporting.
  Task       48 on host co1070 reporting.
  Task       49 on host co1070 reporting.
  Task       50 on host co1070 reporting.
  Task       51 on host co1070 reporting.
  Task       52 on host co1070 reporting.
  Task       53 on host co1070 reporting.
  Task       54 on host co1070 reporting.
  Task       55 on host co1070 reporting.
  Task       56 on host co1070 reporting.
  Task       57 on host co1070 reporting.
  Task       58 on host co1070 reporting.
  Task       59 on host co1070 reporting.
  Task       60 on host co1070 reporting.
  Task       61 on host co1070 reporting.
  Task       62 on host co1070 reporting.
  Task       63 on host co1070 reporting.
  Task       64 on host co1070 reporting.
  Task       65 on host co1070 reporting.
  Task       66 on host co1070 reporting.
  Task       67 on host co1070 reporting.
  Task       68 on host co1070 reporting.
  Task       69 on host co1070 reporting.
  Task       70 on host co1070 reporting.
  Task       71 on host co1070 reporting.
  Task       72 on host co1070 reporting.
  Task       73 on host co1070 reporting.
  Task       74 on host co1070 reporting.
  Task       75 on host co1070 reporting.
  Task       76 on host co1070 reporting.
  Task       77 on host co1070 reporting.
  Task       78 on host co1070 reporting.
  Task       79 on host co1070 reporting.

  Performing system and environment tests:
  | Environment variable OMP_NUM_THREADS correctly set to 1.
  | Checking for ScaLAPACK...
  | Testing pdtran()...
  | All pdtran() tests passed.

  Obtaining array dimensions for all initial allocations:
  
  -----------------------------------------------------------------------
  Parsing control.in (first pass over file, find array dimensions only).
  The contents of control.in will be repeated verbatim below
  unless switched off by setting 'verbatim_writeout .false.' .
  in the first line of control.in .
  -----------------------------------------------------------------------
  
  ##### Physical settings  ################
  xc                 pbe
  spin               none
  charge      0.0
  relativistic       atomic_zora scalar
  #elsi_restart read
  # SCF settings
  
  #vdw_correction_hirshfeld
  occupation_type gaussian       0.01
  # k-grid settings  (to be adjusted)
  k_grid  4 4 1
  #empty_states 8
  use_dipole_correction
  output cube stm -2.0
  #mixer   pulay
  #n_max_pulay        12 # high for metal
  #charge_mix_param   0.07 #low for metal
  
  #output cube stm -0.5
  many_body_dispersion_nl    beta=0.81
  ################################################################################
  #
  #  FHI-aims code project
  # Volker Blum, Fritz Haber Institute Berlin, 2009
  #
  #  Suggested "tight" defaults for S atom (to be pasted into control.in file)
  #
  #  Revised Jan 04, 2011, following tests (SiC) done by Lydia Nemec:
  #     d and g functions of tier 2 now enabled by default.
  #
  ################################################################################
    species        S
  #     global species definitions
      nucleus             16
      mass                32.065
  #
      l_hartree           6
  #
      cut_pot             4.0          2.0  1.0
      basis_dep_cutoff    1e-4
  #
      radial_base         44 7.0
      radial_multiplier   2
      angular_grids       specified
        division   0.4665  110
        division   0.5810  194
        division   0.7139  302
        division   0.8274  434
  #      division   0.9105  590
  #      division   1.0975  770
  #      division   1.2028  974
  #      outer_grid  974
        outer_grid  434
  ################################################################################
  #
  #  Definition of "minimal" basis
  #
  ################################################################################
  #     valence basis states
      valence      3  s   2.
      valence      3  p   4.
  #     ion occupancy
      ion_occ      3  s   1.
      ion_occ      3  p   3.
  ################################################################################
  #
  #  Suggested additional basis functions. For production calculations,
  #  uncomment them one after another (the most important basis functions are
  #  listed first).
  #
  #  Constructed for dimers: 1.6 A, 1.9 A, 2.5 A, 3.25 A, 4.0 A
  #
  ################################################################################
  #  "First tier" - improvements: -652.81 meV to -45.53 meV
       ionic 3 d auto
       hydro 2 p 1.8
       hydro 4 f 7
       ionic 3 s auto
  #  "Second tier" - improvements: -30.20 meV to -1.74 meV
       hydro 4 d 6.2
       hydro 5 g 10.8
  #     hydro 4 p 4.9
  #     hydro 5 f 10
  #     hydro 1 s 0.8
  #  "Third tier" - improvements: -1.04 meV to -0.20 meV
  #     hydro 3 d 3.9
  #     hydro 3 d 2.7
  #     hydro 5 g 12
  #     hydro 4 p 10.4
  #     hydro 5 f 12.4
  #     hydro 2 s 1.9
  #  "Fourth tier" - improvements: -0.35 meV to -0.06 meV
  #     hydro 4 d 10.4
  #     hydro 4 p 7.2
  #     hydro 4 d 10
  #     hydro 5 g 19.2
  #     hydro 4 s 12
  
  ################################################################################
  #
  # For methods that use the localized form of the "resolution of identity" for
  # the two-electron Coulomb operator (RI_method LVL), particularly Hartree-Fock and
  # hybrid density functional calculations, the highest accuracy can be obtained by
  # uncommenting the line beginning with "for_aux"  below, thus adding an extra g radial
  # function to the construction of the product basis set for the expansion.
  # See Ref. New J. Phys. 17, 093020 (2015) for more information, particularly Figs. 1 and 6.
  #
  ################################################################################
  #
  # for_aux hydro 5 g 6.0
  ################################################################################
  #
  #  FHI-aims code project
  # Volker Blum, Fritz Haber Institute Berlin, 2009
  #
  #  Suggested "tight" defaults for Mo atom (to be pasted into control.in file)
  #
  ################################################################################
    species        Mo
  #     global species definitions
      nucleus             42
      mass                95.94
  #
      l_hartree           6
  #
      cut_pot             4.0  2.0  1.0
      basis_dep_cutoff    1e-4
  #
      radial_base         59 7.0
      radial_multiplier   2
      angular_grids specified
        division   0.3117   50
        division   0.6750  110
        division   1.0351  194
        division   1.2073  302
        division   1.6402  434
  #      division   1.9185  590
  #      division   2.0237  770
  #      division   2.0980  974
  #      division   2.7972 1202
  #      outer_grid  974
        outer_grid  434
  ################################################################################
  #
  #  Definition of "minimal" basis
  #
  ################################################################################
  #     valence basis states
      valence      5  s   1.
      valence      4  p   6.
      valence      4  d   5.
  #     ion occupancy
      ion_occ     5  s   0.
      ion_occ     4  p   6.
      ion_occ     4  d   4.
  ################################################################################
  #
  #  Suggested additional basis functions. For production calculations,
  #  uncomment them one after another (the most important basis functions are
  #  listed first).
  #
  #  Constructed for dimers: 1.675 A, 1.9 A, 2.375 A, 3.00 A, 4.00 A
  #
  ################################################################################
  #  "First tier"  - max. impr. -711.23  meV, min. impr. -21.07 meV
       hydro 4 f 8.4
       hydro 3 d 2.8
       ionic 5 p auto
       hydro 5 g 12
       ionic 5 s auto
  #  "Second tier" - max. impr. -39.38  meV, min. impr. -2.68 meV
  #     hydro 4 f 12.4
  #     hydro 3 d 3.3
  #     hydro 6 h 17.2
  #     hydro 4 f 7.6
  #     hydro 3 p 3.0
  #     hydro 1 s 0.65
  #  "Third tier"  - max. impr. -5.50 meV, min. impr. -0.47 meV
  #     hydro 4 f 29.2
  #     hydro 5 g 11.2
  #     hydro 3 d 6.8
  #     hydro 6 h 14.8
  #     hydro 2 p 2.3
  #     hydro 4 s 3.8
  #  "Fourth tier"  - max. impr. -0.58 meV, min. impr. -0.19 meV
  #     hydro 5 f 6.8
  #     hydro 5 d 14.8
  #     hydro 6 s 7.8
  #     hydro 5 g 20.8
  #     hydro 5 d 10.4
  #     hydro 5 p 9.8
  #  Further functions - -0.17 meV and below
  #     hydro 5 d 3.2
  ################################################################################
  #
  #  FHI-aims code project
  # Volker Blum, Fritz Haber Institute Berlin, 2009
  #
  #  Suggested "tight" defaults for W atom (to be pasted into control.in file)
  #
  ################################################################################
    species          W
  #     global species definitions
      nucleus        74
      mass           183.84
  #
      l_hartree      6
  #
      cut_pot        4.0  2.0  1.0
      basis_dep_cutoff    1e-4
  #
      radial_base    71  7.0
      radial_multiplier  2
      angular_grids specified
        division   0.2901   50
        division   0.6986  110
        division   1.0528  194
        division   1.2659  302
        division   1.5223  434
  #      division   1.8111  590
  #      division   2.0105  770
  #      division   2.0413  974
  #      division   2.8804 1202
  #      outer_grid  974
        outer_grid  434
  ################################################################################
  #
  #  Definition of "minimal" basis
  #
  ################################################################################
  #     valence basis states
      valence      6  s   2.
      valence      5  p   6.
      valence      5  d   4.
      valence      4  f  14.
  #     ion occupancy
      ion_occ      6  s   1.
      ion_occ      5  p   6.
      ion_occ      5  d   3.
      ion_occ      4  f  14.
  ################################################################################
  #
  #  Suggested additional basis functions. For production calculations,
  #  uncomment them one after another (the most important basis functions are
  #  listed first).
  #
  #  Constructed for dimers: 1.775, 1.99, 2.50, 3.25, 4.50 AA
  #
  ################################################################################
  #
  #  "First tier" - improvements: -603.77 meV to -28.99 meV
       hydro 4 f 7.8
       hydro 4 d 5.8
       ionic 6 p auto
       hydro 5 g 12.4
       ionic 6 s auto
  #  "Second tier" - improvements: -28.30 meV to -1.31 meV
  #     hydro 6 h 16.8
  #     ionic 5 d auto
  #     hydro 4 f 8.6
  #     hydro 5 g 16.8
  #     hydro 5 d 8.4
  #     hydro 3 p 3.3
  #     hydro 1 s 0.55
  #  "Third tier" - max. impr. -1.79 meV, min. impr. -0.26 meV
  #     hydro 5 f 10.8
  #     hydro 5 g 34.4
  #     hydro 6 h 20.8
  #     hydro 5 g 12.8
  #     hydro 2 p 1.6
  #     hydro 4 s 4.7
  #     hydro 6 d 18.4
  #  "Fourth tier" -0.46 max. impr. - meV, min. impr. -0.09 meV
  #     hydro 6 h 21.6
  #     hydro 5 f 22.4
  #     hydro 4 f 4
  #     hydro 5 p 9.6
  #     hydro 6 d 17.2
  #     hydro 3 p 5.2
  #     hydro 5 g 4.7
  #     hydro 6 s 7.6
  ################################################################################
  #
  #  FHI-aims code project
  # Volker Blum, Fritz Haber Institute Berlin, 2009
  #
  #  Suggested "tight" defaults for Se atom (to be pasted into control.in file)
  #
  ################################################################################
    species        Se
  #     global species definitions
      nucleus             34
      mass                78.96
  #
      l_hartree           6
  #
      cut_pot             4.0          2.0  1.0
      basis_dep_cutoff    1e-4
  #
      radial_base         55 7.0
      radial_multiplier   2
      angular_grids       specified
        division   0.0830  110
        division   0.1357  194
        division   0.7377  302
        division   0.8610  434
  #      division   0.9640  590
  #      division   1.0773  770
  #      division   2.5539  974
  #      outer_grid  974
        outer_grid  434
  ################################################################################
  #
  #  Definition of "minimal" basis
  #
  ################################################################################
  #     valence basis states
      valence      4  s   2.
      valence      4  p   4.
      valence      3  d  10.
  #     ion occupancy
      ion_occ      4  s   1.
      ion_occ      4  p   3.
      ion_occ      3  d  10.
  ################################################################################
  #
  #  Suggested additional basis functions. For production calculations,
  #  uncomment them one after another (the most important basis functions are
  #  listed first).
  #
  #  Constructed for dimers: 1.85 A, 2.15 A, 2.50 A, 3.00 A, 4.00 A
  #
  ################################################################################
  #  "First tier" - improvements: -336.21 meV to -36.85 meV
       hydro 3 d 4.3
       hydro 2 p 1.6
       hydro 4 f 7.2
       ionic 4 s auto
  #  "Second tier" - improvements: -14.39 meV to -1.49 meV
  #     hydro 5 g 10.4
  #     hydro 4 p 4.5
  #     hydro 4 d 6.2
  #     hydro 4 f 11.2
  #     hydro 1 s 0.65
  #     hydro 6 h 15.2
  #  "Third tier" - improvements: -0.46 meV and below
  #     hydro 5 g 14.4
  #     ionic 4 d auto
  #     hydro 4 f 22.4
  #     hydro 5 f 7.4
  #     hydro 5 p 8
  #     hydro 5 s 9.4
  #  "Fourth tier" - improvements: -0.12 meV and below
  #     hydro 5 d 11.6
  #     hydro 6 h 18
  #     hydro 4 p 4
  #     hydro 5 f 16
  #     hydro 4 s 3.9
  
  
  
  -----------------------------------------------------------------------
  Completed first pass over input file control.in .
  -----------------------------------------------------------------------
  
  
  -----------------------------------------------------------------------
  Parsing geometry.in (first pass over file, find array dimensions only).
  The contents of geometry.in will be repeated verbatim below
  unless switched off by setting 'verbatim_writeout .false.' .
  in the first line of geometry.in .
  -----------------------------------------------------------------------
  
  lattice_vector     15.83905019     -0.00078618      0.00
  lattice_vector     -7.92011750     13.71653974      0.00
  lattice_vector     -0.00002710     -0.00004826     99.87375975
  atom      -0.00818230      0.90225991      2.59686175 W
  atom       1.57841503      1.79983787      4.16976019 S
  atom       1.57883439      1.80052575      1.02477820 S
  atom      -1.57036136      3.66570936      2.59733334 W
  atom       0.03049877      4.58958239      4.15677247 S
  atom       0.03086682      4.59028756      1.03875464 S
  atom      -3.18279542      6.40007739      2.59776243 W
  atom      -1.61190276      7.32482521      4.17068929 S
  atom      -1.61150072      7.32551465      1.02566653 S
  atom      -4.75214426      9.14811640      2.59825160 W
  atom      -3.17603755     10.06272306      4.17923103 S
  atom      -3.17572195     10.06347243      1.01803189 S
  atom      -6.33293926     11.88581198      2.59874566 W
  atom      -4.75245344     12.79285096      4.17972023 S
  atom      -4.75209346     12.79352083      1.01855232 S
  atom       3.16778781      0.89338424      2.59732172 W
  atom       4.75670641      1.79963053      4.17029400 S
  atom       4.75720914      1.80027461      1.02524911 S
  atom       1.62577288      3.63448571      2.59767647 W
  atom       3.16752662      4.51652899      4.16951923 S
  atom       3.16795606      4.51715127      1.02663315 S
  atom       0.00052378      6.44891278      2.59818209 W
  atom       1.53564319      7.34244758      4.17011635 S
  atom       1.53599249      7.34317595      1.02718696 S
  atom      -1.60244659      9.15471820      2.59858621 W
  atom      -0.02291339     10.07703881      4.17161110 S
  atom      -0.02240070     10.07784357      1.02649775 S
  atom      -3.17157895     11.88567269      2.59909537 W
  atom      -1.58871069     12.79910449      4.17938389 S
  atom      -1.58828067     12.79987965      1.01973010 S
  atom       6.34375901      0.90191118      2.59782357 W
  atom       7.91850067      1.83277322      4.17368505 S
  atom       7.91892270      1.83348348      1.02286982 S
  atom       4.70963265      3.63421752      2.59815736 W
  atom       6.30443511      4.58905822      4.15773190 S
  atom       6.30489166      4.58989226      1.03967479 S
  atom       4.79897711      7.34211702      4.17085777 S
  atom       4.79907117      7.34261778      1.02801128 S
  atom       1.54227846      9.11936168      2.59912940 W
  atom       3.16703793     10.02233956      4.15864950 S
  atom       3.16752969     10.02305404      1.04063247 S
  atom      -0.00703296     11.90054273      2.59955555 W
  atom       1.58686640     12.79821113      4.17546641 S
  atom       1.58734613     12.79889052      1.02465016 S
  atom       9.50328908      0.91385031      2.59827085 W
  atom      11.08712782      1.82789473      4.17368435 S
  atom      11.08752129      1.82857082      1.02364773 S
  atom       7.90569272      3.66513803      2.59867521 W
  atom       9.49859965      4.56945954      4.17450983 S
  atom       9.49896241      4.57022813      1.02367151 S
  atom       6.33443057      6.44844668      2.59927888 W
  atom       7.94650382      7.32419764      4.17213148 S
  atom       7.94681119      7.32491802      1.02713658 S
  atom       4.79224406      9.11898059      2.59971014 W
  atom       6.35709624     10.07663400      4.17253947 S
  atom       6.35745480     10.07727265      1.02759073 S
  atom       3.16727589     11.87131779      2.60007916 W
  atom       4.74728729     12.79804304      4.17588045 S
  atom       4.74766977     12.79873286      1.02508072 S
  atom      12.67132557      0.91372536      2.59868865 W
  atom      14.25572808      1.83253001      4.17449642 S
  atom      14.25608114      1.83325118      1.02368350 S
  atom      11.08718140      3.65720346      2.59906711 W
  atom      12.67536024      4.56937230      4.17492363 S
  atom      12.67577871      4.57010069      1.02412029 S
  atom       9.51779714      6.39937593      2.59956698 W
  atom      11.08683343      7.31902841      4.17981335 S
  atom      11.08719807      7.31979021      1.02018575 S
  atom       7.93718759      9.15410992      2.60004309 W
  atom       9.51040906     10.06206448      4.18105928 S
  atom       9.51079594     10.06281094      1.01991971 S
  atom       6.34155691     11.90014799      2.60046044 W
  atom       7.92279595     12.79872536      4.18068440 S
  atom       7.92322794     12.79933800      1.02107785 S
  #
  # What follows is the current estimated Hessian matrix constructed by the BFGS algorithm.
  # This is NOT the true Hessian matrix of the system.
  # If you do not want this information here, switch it off using the "hessian_to_restart_geometry" keyword.
  #
  
  -----------------------------------------------------------------------
  Completed first pass over input file geometry.in .
  -----------------------------------------------------------------------
  

  Basic array size parameters:
  | Number of species                 :        4
  | Number of atoms                   :       74
  | Number of lattice vectors         :        3
  | Max. basis fn. angular momentum   :        4
  | Max. atomic/ionic basis occupied n:        6
  | Max. number of basis fn. types    :        3
  | Max. radial fns per species/type  :       14
  | Max. logarithmic grid size        :     1483
  | Max. radial integration grid size :      143
  | Max. angular integration grid size:      434
  | Max. angular grid division number :        8
  | Radial grid for Hartree potential :     1483
  | Number of spin channels           :        1
  | Cube type output requested        :        1

------------------------------------------------------------
          Reading file control.in.
------------------------------------------------------------
  XC: Using PBE gradient-corrected functionals.
  Spin treatment: No spin polarisation.
  Charge =   0.000000E+00: Neutral system requested explicitly.
  Scalar relativistic treatment of kinetic energy: on-site free-atom approximation to ZORA.
  Occupation type: Gaussian broadening, width =   0.100000E-01 eV.
  Found k-point grid:         4         4         1
  Using dipole correction.
  | STM width in eV:      -2.0000
  | Cube output options:
 * Cube origin was not provided following cube request. Will be using default value.
 * Cube edges were not provided following cube request. Defaults will be used.
 Standard cube format requested.

  Using libMBD for calculating MBD and TS energies
 
  Reading configuration options for species S                   .
  | Found nuclear charge :  16.0000
  | Found atomic mass :    32.0650000000000      amu
  | Found l_max for Hartree potential  :   6
  | Found cutoff potl. onset [A], width [A], scale factor :    4.00000    2.00000    1.00000
  | Threshold for basis-dependent cutoff potential is   0.100000E-03
  | Found data for basic radial integration grid :    44 points, outermost radius =    7.000 A
  | Found multiplier for basic radial grid :   2
  | Found angular grid specification: user-specified.
  | Specified grid contains     5 separate shells.
  | Check grid settings after all constraints further below.
  | Found free-atom valence shell :  3 s   2.000
  | Found free-atom valence shell :  3 p   4.000
  | Found free-ion valence shell :  3 s   1.000
  | Found free-ion valence shell :  3 p   3.000
  | Found ionic basis function :  3 d , default cutoff radius.
  | Found hydrogenic basis function :  2 p   1.800
  | Found hydrogenic basis function :  4 f   7.000
  | Found ionic basis function :  3 s , default cutoff radius.
  | Found hydrogenic basis function :  4 d   6.200
  | Found hydrogenic basis function :  5 g  10.800
  Species S                   : Missing cutoff potential type.
  Defaulting to exp(1/x)/(1-x)^2 type cutoff potential.
  Species S : No 'logarithmic' tag. Using default grid for free atom:
  | Default logarithmic grid data [bohr] : 0.1000E-03 0.1000E+03 0.1012E+01
  | Will include ionic basis functions of  2.0-fold positive S                    ion.
  Species S : On-site basis accuracy parameter (for Gram-Schmidt orthonormalisation) not specified.
  Using default value basis_acc =  0.1000000E-03.
  Species S                   : Using default innermost maximum threshold i_radial=  2 for radial functions.
  Species S                   : Default cutoff onset for free atom density etc. : 0.40000000E+01 AA.
  Species S                   : Basic radial grid will be enhanced according to radial_multiplier =   2, to contain    89 grid points.
 
  Reading configuration options for species Mo                  .
  | Found nuclear charge :  42.0000
  | Found atomic mass :    95.9400000000000      amu
  | Found l_max for Hartree potential  :   6
  | Found cutoff potl. onset [A], width [A], scale factor :    4.00000    2.00000    1.00000
  | Threshold for basis-dependent cutoff potential is   0.100000E-03
  | Found data for basic radial integration grid :    59 points, outermost radius =    7.000 A
  | Found multiplier for basic radial grid :   2
  | Found angular grid specification: user-specified.
  | Specified grid contains     6 separate shells.
  | Check grid settings after all constraints further below.
  | Found free-atom valence shell :  5 s   1.000
  | Found free-atom valence shell :  4 p   6.000
  | Found free-atom valence shell :  4 d   5.000
  | Found free-ion valence shell :  5 s   0.000
  | Found free-ion valence shell :  4 p   6.000
  | Found free-ion valence shell :  4 d   4.000
  | Found hydrogenic basis function :  4 f   8.400
  | Found hydrogenic basis function :  3 d   2.800
  | Found ionic basis function :  5 p , default cutoff radius.
  | Found hydrogenic basis function :  5 g  12.000
  | Found ionic basis function :  5 s , default cutoff radius.
  Species Mo                  : Missing cutoff potential type.
  Defaulting to exp(1/x)/(1-x)^2 type cutoff potential.
  Species Mo: No 'logarithmic' tag. Using default grid for free atom:
  | Default logarithmic grid data [bohr] : 0.1000E-03 0.1000E+03 0.1012E+01
  | Will include ionic basis functions of  2.0-fold positive Mo                   ion.
  Species Mo: On-site basis accuracy parameter (for Gram-Schmidt orthonormalisation) not specified.
  Using default value basis_acc =  0.1000000E-03.
  Species Mo                  : Using default innermost maximum threshold i_radial=  2 for radial functions.
  Species Mo                  : Default cutoff onset for free atom density etc. : 0.40000000E+01 AA.
  Species Mo                  : Basic radial grid will be enhanced according to radial_multiplier =   2, to contain   119 grid points.
 
  Reading configuration options for species W                   .
  | Found nuclear charge :  74.0000
  | Found atomic mass :    183.840000000000      amu
  | Found l_max for Hartree potential  :   6
  | Found cutoff potl. onset [A], width [A], scale factor :    4.00000    2.00000    1.00000
  | Threshold for basis-dependent cutoff potential is   0.100000E-03
  | Found data for basic radial integration grid :    71 points, outermost radius =    7.000 A
  | Found multiplier for basic radial grid :   2
  | Found angular grid specification: user-specified.
  | Specified grid contains     6 separate shells.
  | Check grid settings after all constraints further below.
  | Found free-atom valence shell :  6 s   2.000
  | Found free-atom valence shell :  5 p   6.000
  | Found free-atom valence shell :  5 d   4.000
  | Found free-atom valence shell :  4 f  14.000
  | Found free-ion valence shell :  6 s   1.000
  | Found free-ion valence shell :  5 p   6.000
  | Found free-ion valence shell :  5 d   3.000
  | Found free-ion valence shell :  4 f  14.000
  | Found hydrogenic basis function :  4 f   7.800
  | Found hydrogenic basis function :  4 d   5.800
  | Found ionic basis function :  6 p , default cutoff radius.
  | Found hydrogenic basis function :  5 g  12.400
  | Found ionic basis function :  6 s , default cutoff radius.
  Species W                   : Missing cutoff potential type.
  Defaulting to exp(1/x)/(1-x)^2 type cutoff potential.
  Species W : No 'logarithmic' tag. Using default grid for free atom:
  | Default logarithmic grid data [bohr] : 0.1000E-03 0.1000E+03 0.1012E+01
  | Will include ionic basis functions of  2.0-fold positive W                    ion.
  Species W : On-site basis accuracy parameter (for Gram-Schmidt orthonormalisation) not specified.
  Using default value basis_acc =  0.1000000E-03.
  Species W                   : Using default innermost maximum threshold i_radial=  2 for radial functions.
  Species W                   : Default cutoff onset for free atom density etc. : 0.40000000E+01 AA.
  Species W                   : Basic radial grid will be enhanced according to radial_multiplier =   2, to contain   143 grid points.
 
  Reading configuration options for species Se                  .
  | Found nuclear charge :  34.0000
  | Found atomic mass :    78.9600000000000      amu
  | Found l_max for Hartree potential  :   6
  | Found cutoff potl. onset [A], width [A], scale factor :    4.00000    2.00000    1.00000
  | Threshold for basis-dependent cutoff potential is   0.100000E-03
  | Found data for basic radial integration grid :    55 points, outermost radius =    7.000 A
  | Found multiplier for basic radial grid :   2
  | Found angular grid specification: user-specified.
  | Specified grid contains     5 separate shells.
  | Check grid settings after all constraints further below.
  | Found free-atom valence shell :  4 s   2.000
  | Found free-atom valence shell :  4 p   4.000
  | Found free-atom valence shell :  3 d  10.000
  | Found free-ion valence shell :  4 s   1.000
  | Found free-ion valence shell :  4 p   3.000
  | Found free-ion valence shell :  3 d  10.000
  | Found hydrogenic basis function :  3 d   4.300
  | Found hydrogenic basis function :  2 p   1.600
  | Found hydrogenic basis function :  4 f   7.200
  | Found ionic basis function :  4 s , default cutoff radius.
  Species Se                  : Missing cutoff potential type.
  Defaulting to exp(1/x)/(1-x)^2 type cutoff potential.
  Species Se: No 'logarithmic' tag. Using default grid for free atom:
  | Default logarithmic grid data [bohr] : 0.1000E-03 0.1000E+03 0.1012E+01
  | Will include ionic basis functions of  2.0-fold positive Se                   ion.
  Species Se: On-site basis accuracy parameter (for Gram-Schmidt orthonormalisation) not specified.
  Using default value basis_acc =  0.1000000E-03.
  Species Se                  : Using default innermost maximum threshold i_radial=  2 for radial functions.
  Species Se                  : Default cutoff onset for free atom density etc. : 0.40000000E+01 AA.
  Species Se                  : Basic radial grid will be enhanced according to radial_multiplier =   2, to contain   111 grid points.
 
  Finished reading input file 'control.in'.
 
------------------------------------------------------------


------------------------------------------------------------
          Reading geometry description geometry.in.
------------------------------------------------------------
  | The smallest distance between any two atoms is         2.37179183 AA.
  | The first atom of this pair is atom number                     24 .
  | The second atom of this pair is atom number                    22 .
  | Wigner-Seitz cell of the first atom image           0     1     0 .
  | (The Wigner-Seitz cell of the second atom is 0 0 0  by definition.)

  Symmetry information by spglib:
  | Precision set to  0.1E-04
  | Number of Operations  : 1
  | Space group           : 1
  | International         : P1  Y
  | Schoenflies           : C1^1
  Input structure read successfully.
  The structure contains       74 atoms,  and a total of       2576.000 electrons.

  Input geometry:
  | Unit cell:
  |       15.83905019       -0.00078618        0.00000000
  |       -7.92011750       13.71653974        0.00000000
  |       -0.00002710       -0.00004826       99.87375975
  | Atomic structure:
  |       Atom                x [A]            y [A]            z [A]
  |    1: Species W            -0.00818230        0.90225991        2.59686175
  |    2: Species S             1.57841503        1.79983787        4.16976019
  |    3: Species S             1.57883439        1.80052575        1.02477820
  |    4: Species W            -1.57036136        3.66570936        2.59733334
  |    5: Species S             0.03049877        4.58958239        4.15677247
  |    6: Species S             0.03086682        4.59028756        1.03875464
  |    7: Species W            -3.18279542        6.40007739        2.59776243
  |    8: Species S            -1.61190276        7.32482521        4.17068929
  |    9: Species S            -1.61150072        7.32551465        1.02566653
  |   10: Species W            -4.75214426        9.14811640        2.59825160
  |   11: Species S            -3.17603755       10.06272306        4.17923103
  |   12: Species S            -3.17572195       10.06347243        1.01803189
  |   13: Species W            -6.33293926       11.88581198        2.59874566
  |   14: Species S            -4.75245344       12.79285096        4.17972023
  |   15: Species S            -4.75209346       12.79352083        1.01855232
  |   16: Species W             3.16778781        0.89338424        2.59732172
  |   17: Species S             4.75670641        1.79963053        4.17029400
  |   18: Species S             4.75720914        1.80027461        1.02524911
  |   19: Species W             1.62577288        3.63448571        2.59767647
  |   20: Species S             3.16752662        4.51652899        4.16951923
  |   21: Species S             3.16795606        4.51715127        1.02663315
  |   22: Species W             0.00052378        6.44891278        2.59818209
  |   23: Species S             1.53564319        7.34244758        4.17011635
  |   24: Species S             1.53599249        7.34317595        1.02718696
  |   25: Species W            -1.60244659        9.15471820        2.59858621
  |   26: Species S            -0.02291339       10.07703881        4.17161110
  |   27: Species S            -0.02240070       10.07784357        1.02649775
  |   28: Species W            -3.17157895       11.88567269        2.59909537
  |   29: Species S            -1.58871069       12.79910449        4.17938389
  |   30: Species S            -1.58828067       12.79987965        1.01973010
  |   31: Species W             6.34375901        0.90191118        2.59782357
  |   32: Species S             7.91850067        1.83277322        4.17368505
  |   33: Species S             7.91892270        1.83348348        1.02286982
  |   34: Species W             4.70963265        3.63421752        2.59815736
  |   35: Species S             6.30443511        4.58905822        4.15773190
  |   36: Species S             6.30489166        4.58989226        1.03967479
  |   37: Species S             4.79897711        7.34211702        4.17085777
  |   38: Species S             4.79907117        7.34261778        1.02801128
  |   39: Species W             1.54227846        9.11936168        2.59912940
  |   40: Species S             3.16703793       10.02233956        4.15864950
  |   41: Species S             3.16752969       10.02305404        1.04063247
  |   42: Species W            -0.00703296       11.90054273        2.59955555
  |   43: Species S             1.58686640       12.79821113        4.17546641
  |   44: Species S             1.58734613       12.79889052        1.02465016
  |   45: Species W             9.50328908        0.91385031        2.59827085
  |   46: Species S            11.08712782        1.82789473        4.17368435
  |   47: Species S            11.08752129        1.82857082        1.02364773
  |   48: Species W             7.90569272        3.66513803        2.59867521
  |   49: Species S             9.49859965        4.56945954        4.17450983
  |   50: Species S             9.49896241        4.57022813        1.02367151
  |   51: Species W             6.33443057        6.44844668        2.59927888
  |   52: Species S             7.94650382        7.32419764        4.17213148
  |   53: Species S             7.94681119        7.32491802        1.02713658
  |   54: Species W             4.79224406        9.11898059        2.59971014
  |   55: Species S             6.35709624       10.07663400        4.17253947
  |   56: Species S             6.35745480       10.07727265        1.02759073
  |   57: Species W             3.16727589       11.87131779        2.60007916
  |   58: Species S             4.74728729       12.79804304        4.17588045
  |   59: Species S             4.74766977       12.79873286        1.02508072
  |   60: Species W            12.67132557        0.91372536        2.59868865
  |   61: Species S            14.25572808        1.83253001        4.17449642
  |   62: Species S            14.25608114        1.83325118        1.02368350
  |   63: Species W            11.08718140        3.65720346        2.59906711
  |   64: Species S            12.67536024        4.56937230        4.17492363
  |   65: Species S            12.67577871        4.57010069        1.02412029
  |   66: Species W             9.51779714        6.39937593        2.59956698
  |   67: Species S            11.08683343        7.31902841        4.17981335
  |   68: Species S            11.08719807        7.31979021        1.02018575
  |   69: Species W             7.93718759        9.15410992        2.60004309
  |   70: Species S             9.51040906       10.06206448        4.18105928
  |   71: Species S             9.51079594       10.06281094        1.01991971
  |   72: Species W             6.34155691       11.90014799        2.60046044
  |   73: Species S             7.92279595       12.79872536        4.18068440
  |   74: Species S             7.92322794       12.79933800        1.02107785

  Lattice parameters for 3D lattice (in Angstroms) :    15.839050   15.838931   99.873760
  Angle(s) between unit vectors (in degrees)       :    90.000016   90.000016  120.005568


  Quantities derived from the lattice vectors:
  | Reciprocal lattice vector 1:  0.396701  0.229061  0.000000
  | Reciprocal lattice vector 2:  0.000023  0.458087  0.000000
  | Reciprocal lattice vector 3: -0.000000  0.000000  0.062911
  | Unit cell volume                               :   0.216976E+05  A^3

  Fractional coordinates:
                         L1                L2                L3
       atom_frac         0.03237638        0.06578092        0.02600144  W
       atom_frac         0.16527148        0.13122623        0.04175031  S
       atom_frac         0.16532293        0.13127627        0.01026074  S
       atom_frac         0.03448985        0.26724945        0.02600616  W
       atom_frac         0.16924408        0.33461190        0.04162027  S
       atom_frac         0.16929292        0.33466321        0.01040068  S
       atom_frac         0.03237018        0.46659757        0.02601046  W
       atom_frac         0.16526425        0.53402369        0.04175961  S
       atom_frac         0.16531466        0.53407384        0.01026963  S
       atom_frac         0.03346917        0.66694255        0.02601536  W
       atom_frac         0.16632273        0.73362933        0.04184514  S
       atom_frac         0.16636987        0.73368385        0.01019319  S
       atom_frac         0.03346840        0.86653338        0.02602030  W
       atom_frac         0.16632256        0.93266844        0.04185003  S
       atom_frac         0.16636960        0.93271717        0.01019840  S
       atom_frac         0.23257374        0.06514532        0.02600605  W
       atom_frac         0.36593142        0.13122262        0.04175565  S
       atom_frac         0.36598653        0.13126947        0.01026545  S
       atom_frac         0.23514559        0.26498460        0.02600960  W
       atom_frac         0.36464308        0.32929717        0.04174789  S
       atom_frac         0.36469277        0.32934243        0.01027931  S
       atom_frac         0.23513546        0.47016952        0.02601466  W
       atom_frac         0.36463301        0.53531987        0.04175387  S
       atom_frac         0.36468151        0.53537286        0.01028485  S
       atom_frac         0.23257201        0.66743526        0.02601871  W
       atom_frac         0.36592314        0.73468445        0.04176884  S
       atom_frac         0.36598474        0.73474302        0.01027795  S
       atom_frac         0.23306184        0.86653467        0.02602381  W
       atom_frac         0.36629947        0.93313581        0.04184667  S
       atom_frac         0.36635477        0.93319222        0.01021019  S
       atom_frac         0.43340560        0.06577848        0.02601107  W
       atom_frac         0.56676559        0.13365038        0.04178961  S
       atom_frac         0.56681802        0.13370206        0.01024163  S
       atom_frac         0.42984118        0.26497621        0.02601441  W
       atom_frac         0.56534192        0.33459639        0.04162987  S
       atom_frac         0.56540104        0.33465709        0.01040989  S
       atom_frac         0.57065778        0.53530758        0.04176130  S
       atom_frac         0.57068186        0.53534398        0.01029311  S
       atom_frac         0.42983127        0.66486891        0.02602415  W
       atom_frac         0.56533268        0.73070805        0.04163906  S
       atom_frac         0.56538967        0.73076003        0.01041948  S
       atom_frac         0.43340359        0.86763024        0.02602841  W
       atom_frac         0.56676302        0.93308217        0.04180744  S
       atom_frac         0.56681797        0.93313160        0.01025945  S
       atom_frac         0.63332381        0.06666036        0.02601555  W
       atom_frac         0.76664506        0.13330618        0.04178960  S
       atom_frac         0.76669444        0.13335536        0.01024942  S
       atom_frac         0.63275778        0.26724209        0.02601960  W
       atom_frac         0.76629710        0.33317907        0.04179786  S
       atom_frac         0.76634791        0.33323500        0.01024965  S
       atom_frac         0.63502176        0.47015846        0.02602564  W
       atom_frac         0.76872961        0.53401252        0.04177405  S
       atom_frac         0.76877517        0.53406494        0.01028435  S
       atom_frac         0.63501016        0.66485289        0.02602996  W
       atom_frac         0.76872246        0.73467803        0.04177814  S
       atom_frac         0.76876828        0.73472448        0.01028890  S
       atom_frac         0.63275421        0.86551103        0.02603366  W
       atom_frac         0.76629610        0.93308136        0.04181159  S
       atom_frac         0.76634529        0.93313154        0.01026376  S
       atom_frac         0.83333929        0.06666271        0.02601973  W
       atom_frac         0.96686967        0.13365559        0.04179773  S
       atom_frac         0.96691814        0.13370805        0.01024977  S
       atom_frac         0.83333787        0.26667512        0.02602352  W
       atom_frac         0.96686476        0.33318421        0.04180201  S
       atom_frac         0.96691763        0.33323720        0.01025415  S
       atom_frac         0.83422075        0.46659239        0.02602853  W
       atom_frac         0.96681186        0.53364702        0.04185097  S
       atom_frac         0.96686255        0.53370245        0.01021475  S
       atom_frac         0.83485285        0.66742544        0.02603330  W
       atom_frac         0.96728174        0.73362722        0.04186344  S
       atom_frac         0.96733327        0.73368153        0.01021209  S
       atom_frac         0.83421954        0.86762444        0.02603747  W
       atom_frac         0.96681278        0.93314259        0.04185969  S
       atom_frac         0.96686227        0.93318715        0.01022368  S

 
  Finished reading input file 'control.in'.
 

------------------------------------------------------------
          Reading geometry description geometry.in.
------------------------------------------------------------
 
  Consistency checks for stacksize environment parameter are next.
 
  | Maximum stacksize for task 0: unlimited
  | Maximum stacksize for task 1: unlimited
  | Maximum stacksize for task 2: unlimited
  | Maximum stacksize for task 3: unlimited
  | Maximum stacksize for task 4: unlimited
  | Maximum stacksize for task 5: unlimited
  | Maximum stacksize for task 6: unlimited
  | Maximum stacksize for task 7: unlimited
  | Maximum stacksize for task 8: unlimited
  | Maximum stacksize for task 9: unlimited
  | Maximum stacksize for task 10: unlimited
  | Maximum stacksize for task 11: unlimited
  | Maximum stacksize for task 12: unlimited
  | Maximum stacksize for task 13: unlimited
  | Maximum stacksize for task 14: unlimited
  | Maximum stacksize for task 15: unlimited
  | Maximum stacksize for task 16: unlimited
  | Maximum stacksize for task 17: unlimited
  | Maximum stacksize for task 18: unlimited
  | Maximum stacksize for task 19: unlimited
  | Maximum stacksize for task 20: unlimited
  | Maximum stacksize for task 21: unlimited
  | Maximum stacksize for task 22: unlimited
  | Maximum stacksize for task 23: unlimited
  | Maximum stacksize for task 24: unlimited
  | Maximum stacksize for task 25: unlimited
  | Maximum stacksize for task 26: unlimited
  | Maximum stacksize for task 27: unlimited
  | Maximum stacksize for task 28: unlimited
  | Maximum stacksize for task 29: unlimited
  | Maximum stacksize for task 30: unlimited
  | Maximum stacksize for task 31: unlimited
  | Maximum stacksize for task 32: unlimited
  | Maximum stacksize for task 33: unlimited
  | Maximum stacksize for task 34: unlimited
  | Maximum stacksize for task 35: unlimited
  | Maximum stacksize for task 36: unlimited
  | Maximum stacksize for task 37: unlimited
  | Maximum stacksize for task 38: unlimited
  | Maximum stacksize for task 39: unlimited
  | Maximum stacksize for task 40: unlimited
  | Maximum stacksize for task 41: unlimited
  | Maximum stacksize for task 42: unlimited
  | Maximum stacksize for task 43: unlimited
  | Maximum stacksize for task 44: unlimited
  | Maximum stacksize for task 45: unlimited
  | Maximum stacksize for task 46: unlimited
  | Maximum stacksize for task 47: unlimited
  | Maximum stacksize for task 48: unlimited
  | Maximum stacksize for task 49: unlimited
  | Maximum stacksize for task 50: unlimited
  | Maximum stacksize for task 51: unlimited
  | Maximum stacksize for task 52: unlimited
  | Maximum stacksize for task 53: unlimited
  | Maximum stacksize for task 54: unlimited
  | Maximum stacksize for task 55: unlimited
  | Maximum stacksize for task 56: unlimited
  | Maximum stacksize for task 57: unlimited
  | Maximum stacksize for task 58: unlimited
  | Maximum stacksize for task 59: unlimited
  | Maximum stacksize for task 60: unlimited
  | Maximum stacksize for task 61: unlimited
  | Maximum stacksize for task 62: unlimited
  | Maximum stacksize for task 63: unlimited
  | Maximum stacksize for task 64: unlimited
  | Maximum stacksize for task 65: unlimited
  | Maximum stacksize for task 66: unlimited
  | Maximum stacksize for task 67: unlimited
  | Maximum stacksize for task 68: unlimited
  | Maximum stacksize for task 69: unlimited
  | Maximum stacksize for task 70: unlimited
  | Maximum stacksize for task 71: unlimited
  | Maximum stacksize for task 72: unlimited
  | Maximum stacksize for task 73: unlimited
  | Maximum stacksize for task 74: unlimited
  | Maximum stacksize for task 75: unlimited
  | Maximum stacksize for task 76: unlimited
  | Maximum stacksize for task 77: unlimited
  | Maximum stacksize for task 78: unlimited
  | Maximum stacksize for task 79: unlimited
  | Current stacksize for task 0: unlimited
  | Current stacksize for task 1: unlimited
  | Current stacksize for task 2: unlimited
  | Current stacksize for task 3: unlimited
  | Current stacksize for task 4: unlimited
  | Current stacksize for task 5: unlimited
  | Current stacksize for task 6: unlimited
  | Current stacksize for task 7: unlimited
  | Current stacksize for task 8: unlimited
  | Current stacksize for task 9: unlimited
  | Current stacksize for task 10: unlimited
  | Current stacksize for task 11: unlimited
  | Current stacksize for task 12: unlimited
  | Current stacksize for task 13: unlimited
  | Current stacksize for task 14: unlimited
  | Current stacksize for task 15: unlimited
  | Current stacksize for task 16: unlimited
  | Current stacksize for task 17: unlimited
  | Current stacksize for task 18: unlimited
  | Current stacksize for task 19: unlimited
  | Current stacksize for task 20: unlimited
  | Current stacksize for task 21: unlimited
  | Current stacksize for task 22: unlimited
  | Current stacksize for task 23: unlimited
  | Current stacksize for task 24: unlimited
  | Current stacksize for task 25: unlimited
  | Current stacksize for task 26: unlimited
  | Current stacksize for task 27: unlimited
  | Current stacksize for task 28: unlimited
  | Current stacksize for task 29: unlimited
  | Current stacksize for task 30: unlimited
  | Current stacksize for task 31: unlimited
  | Current stacksize for task 32: unlimited
  | Current stacksize for task 33: unlimited
  | Current stacksize for task 34: unlimited
  | Current stacksize for task 35: unlimited
  | Current stacksize for task 36: unlimited
  | Current stacksize for task 37: unlimited
  | Current stacksize for task 38: unlimited
  | Current stacksize for task 39: unlimited
  | Current stacksize for task 40: unlimited
  | Current stacksize for task 41: unlimited
  | Current stacksize for task 42: unlimited
  | Current stacksize for task 43: unlimited
  | Current stacksize for task 44: unlimited
  | Current stacksize for task 45: unlimited
  | Current stacksize for task 46: unlimited
  | Current stacksize for task 47: unlimited
  | Current stacksize for task 48: unlimited
  | Current stacksize for task 49: unlimited
  | Current stacksize for task 50: unlimited
  | Current stacksize for task 51: unlimited
  | Current stacksize for task 52: unlimited
  | Current stacksize for task 53: unlimited
  | Current stacksize for task 54: unlimited
  | Current stacksize for task 55: unlimited
  | Current stacksize for task 56: unlimited
  | Current stacksize for task 57: unlimited
  | Current stacksize for task 58: unlimited
  | Current stacksize for task 59: unlimited
  | Current stacksize for task 60: unlimited
  | Current stacksize for task 61: unlimited
  | Current stacksize for task 62: unlimited
  | Current stacksize for task 63: unlimited
  | Current stacksize for task 64: unlimited
  | Current stacksize for task 65: unlimited
  | Current stacksize for task 66: unlimited
  | Current stacksize for task 67: unlimited
  | Current stacksize for task 68: unlimited
  | Current stacksize for task 69: unlimited
  | Current stacksize for task 70: unlimited
  | Current stacksize for task 71: unlimited
  | Current stacksize for task 72: unlimited
  | Current stacksize for task 73: unlimited
  | Current stacksize for task 74: unlimited
  | Current stacksize for task 75: unlimited
  | Current stacksize for task 76: unlimited
  | Current stacksize for task 77: unlimited
  | Current stacksize for task 78: unlimited
  | Current stacksize for task 79: unlimited
 
  Consistency checks for the contents of control.in are next.
 
  MPI_IN_PLACE appears to work with this MPI implementation.
  | Keeping use_mpi_in_place .true. (see manual).
  Target number of points in a grid batch is not set. Defaulting to  100
  Method for grid partitioning is not set. Defaulting to parallel hash+maxmin partitioning.
  Batch size limit is not set. Defaulting to    200
  By default, will store active basis functions for each batch.
  If in need of memory, prune_basis_once .false. can be used to disable this option.
  communication_type for Hartree potential was not specified.
  Defaulting to calc_hartree .
  Defaulting to Pulay charge density mixer.
  Pulay mixer: Number of relevant iterations not set.
  Defaulting to    8 iterations.
  Pulay mixer: Number of initial linear mixing iterations not set.
  Defaulting to    0 iterations.
  Work space size for distributed Hartree potential not set.
  Defaulting to   0.200000E+03 MB.
  Mixing parameter for charge density mixing has not been set.
  Using default: charge_mix_param =     0.0500.
  The mixing parameter will be adjusted in iteration number     2 of the first full s.c.f. cycle only.
  Algorithm-dependent basis array size parameters:
  | n_max_pulay                         :        8
  Maximum number of self-consistency iterations not provided.
  Presetting  1000 iterations.
  Presetting      1001 iterations before the initial mixing cycle
  is restarted anyway using the sc_init_iter criterion / keyword.
  Presetting a factor      1.000 between actual scf density residual
  and density convergence criterion sc_accuracy_rho below which sc_init_iter
  takes no effect.
 * No s.c.f. convergence criteria (sc_accuracy_*) were provided in control.in.
 * The run will proceed with a reasonable default guess, but please check whether.
 * the s.c.f. cycles seem to take too much or too little time.
  Calculation of forces was not defined in control.in. No forces will be calculated.
  Geometry relaxation not requested: no relaxation will be performed.
 * Notice: The s.c.f. convergence criterion sc_accuracy_rho was not provided.
 * We used to stop in this case, and ask the user to provide reasonable
 * scf convergence criteria. However, this led some users to employ criteria
 * that led to extremely long run times, e.g., for simple relaxation.
 * We now preset a default value for sc_accuracy_rho if it is not set.
 * You may still wish to check if this setting is too tight or too loose for your needs.
 * Based on n_atoms, FHI-aims chose sc_accuracy_rho =  0.123333E-04 .
  No accuracy limit for integral partition fn. given. Defaulting to  0.1000E-14.
  No threshold value for u(r) in integrations given. Defaulting to  0.1000E-05.
  No accuracy for occupation numbers given. Defaulting to  0.1000E-12.
  No threshold value for occupation numbers given. Defaulting to  0.0000E+00.
  No accuracy for fermi level given. Defaulting to  0.1000E-19.
  Maximum # of iterations to find E_F not set. Defaulting to  200.
  Preferred method for the eigenvalue solver ('KS_method') not specified in 'control.in'.
  Calling BLACS routine to test compilation state
  Since ScaLAPACK support is enabled, defaulting to ELPA (via ELSI).
  Will not use alltoall communication since running on < 1024 CPUs.
  Threshold for basis singularities not set.
  Default threshold for basis singularities:  0.1000E-04
  partition_type (choice of integration weights) for integrals was not specified.
  | Using a version of the partition function of Stratmann and coworkers ('stratmann_sparse').
  | At each grid point, the set of atoms used to build the partition table is smoothly restricted to
  | only those atoms whose free-atom density would be non-zero at that grid point.
  Partitioning for Hartree potential was not defined. Using partition_type for integrals.
  | Adjusted default value of keyword multip_moments_threshold to:       0.10000000E-11
  | This value may affect high angular momentum components of the Hartree potential in periodic systems.
  Angular momentum expansion for Kerker preconditioner not set explicitly.
  | Using default value of   0
  No explicit requirement for turning off preconditioner.
  | By default, it will be turned off when the charge convergence reaches
  | sc_accuracy_rho  =   0.123333E-04
  No special mixing parameter while Kerker preconditioner is on.
  Using default: charge_mix_param =     0.0500.
  No q(lm)/r^(l+1) cutoff set for long-range Hartree potential.
  | Using default value of  0.100000E-09 .
  | Verify using the multipole_threshold keyword.
  Defaulting to new monopole extrapolation.
  Density update method: automatic selection selected.
  Using density matrix based charge density update.
  Using density matrix based charge density update.
  Using packed matrix style: index .
  Defaulting to use time-reversal symmetry for k-point grid.
  Charge integration errors on the 3D integration grid will be compensated
  by explicit normalization and distribution of residual charges.
  Use the "compensate_multipole_errors" flag to change this behaviour.
  * Volumetric cube output requested. Tightening default wave_threshold to 1d-8
 
  Consistency checks for the contents of geometry.in are next.
 

  Range separation radius for Ewald summation (hartree_convergence_parameter):      5.00000000 bohr.
  Number of empty states per atom not set in control.in - providing a guess from actual geometry.
  | Total number of empty states used during s.c.f. cycle:      366
  If you use a very high smearing, use empty_states (per atom!) in control.in to increase this value.

  Structure-dependent array size parameters: 
  | Maximum number of distinct radial functions  :       57
  | Maximum number of basis functions            :     3510
  | Number of Kohn-Sham states (occupied + empty):     1654
------------------------------------------------------------
 Error: The dipole correction needs vacuum z-level to be defined
 Vacuum level will be determined automatically.
 Determine position of vacuum level automatically
 **WARNING** : This feature is experimental and still requires some testing
 **PLEASE ** : If you see it fail, please report.
 Vacuum level determined:
 set_vacuum_level    52.5364254600000

------------------------------------------------------------
          Preparing all fixed parts of the calculation.
------------------------------------------------------------
  Determining machine precision:
    2.225073858507201E-308
  Setting up grids for atomic and cluster calculations.

  Creating wave function, potential, and density for free atoms.

  Species: S

  List of occupied orbitals and eigenvalues:
    n    l              occ      energy [Ha]    energy [eV]
    1    0           2.0000       -88.680731     -2413.1255
    2    0           2.0000        -7.781719      -211.7513
    3    0           2.0000        -0.633662       -17.2428
    2    1           6.0000        -5.751976      -156.5192
    3    1           4.0000        -0.257086        -6.9957


  Species: Mo

  List of occupied orbitals and eigenvalues:
    n    l              occ      energy [Ha]    energy [eV]
    1    0           2.0000      -745.344654    -20281.8600
    2    0           2.0000      -103.288246     -2810.6162
    3    0           2.0000       -17.516687      -476.6533
    4    0           2.0000        -2.358559       -64.1796
    5    0           1.0000        -0.145159        -3.9500
    2    1           6.0000       -92.308627     -2511.8455
    3    1           6.0000       -13.936005      -379.2180
    4    1           6.0000        -1.408138       -38.3174
    3    2          10.0000        -8.119011      -220.9295
    4    2           5.0000        -0.132984        -3.6187


  Species: W

  List of occupied orbitals and eigenvalues:
    n    l              occ      energy [Ha]    energy [eV]
    1    0           2.0000     -2764.899999    -75236.7570
    2    0           2.0000      -447.822848    -12185.8797
    3    0           2.0000      -101.923634     -2773.4832
    4    0           2.0000       -20.945301      -569.9506
    5    0           2.0000        -2.899582       -78.9016
    6    0           2.0000        -0.207066        -5.6345
    2    1           6.0000      -391.021390    -10640.2334
    3    1           6.0000       -85.417793     -2324.3364
    4    1           6.0000       -15.562838      -423.4864
    5    1           6.0000        -1.582233       -43.0547
    3    2          10.0000       -66.517936     -1810.0451
    4    2          10.0000        -8.758436      -238.3292
    5    2           4.0000        -0.161873        -4.4048
    4    3          14.0000        -1.221948       -33.2509


  Species: Se

  List of occupied orbitals and eigenvalues:
    n    l              occ      energy [Ha]    energy [eV]
    1    0           2.0000      -466.337810    -12689.6975
    2    0           2.0000       -59.202598     -1610.9847
    3    0           2.0000        -7.847116      -213.5309
    4    0           2.0000        -0.634372       -17.2621
    2    1           6.0000       -52.061107     -1416.6548
    3    1           6.0000        -5.620941      -152.9536
    4    1           4.0000        -0.238469        -6.4891
    3    2          10.0000        -1.951949       -53.1152


  Adding cutoff potential to free-atom effective potential.
  Creating fixed part of basis set: Ionic, confined, hydrogenic.
 
  S                    ion:

  List of free ionic orbitals and eigenvalues:
    n    l      energy [Ha]    energy [eV]
    1    0       -89.703778     -2440.9640
    2    0        -8.775428      -238.7916
    3    0        -1.470343       -40.0101
    2    1        -6.747660      -183.6132
    3    1        -1.048627       -28.5346


  List of ionic basis orbitals and eigenvalues:
    n    l      energy [Ha]    energy [eV]    outer radius [A]
    3    2        -0.495605       -13.4861       5.587574
    3    0        -1.470336       -40.0099       4.166788

 
  S                    hydrogenic:
 
  List of hydrogenic basis orbitals: 
    n    l      effective z      eigenvalue [eV]  inner max. [A]     outer max. [A]     outer radius [A]   
    2    1         1.800000       -11.0118           1.168531           1.168531           5.587574
    4    3         7.000000       -41.6672           1.212182           1.212182           5.256262
    4    2         6.200000       -32.6848           0.582121           1.814567           5.587574
    5    4        10.800000       -63.4785           1.227092           1.227092           4.944596
 
 
  Mo                   ion:

  List of free ionic orbitals and eigenvalues:
    n    l      energy [Ha]    energy [eV]
    1    0      -746.048685    -20301.0176
    2    0      -103.980912     -2829.4646
    3    0       -18.206601      -495.4268
    4    0        -3.040545       -82.7374
    2    1       -93.001013     -2530.6863
    3    1       -14.625827      -397.9890
    4    1        -2.084855       -56.7318
    3    2        -8.808854      -239.7011
    4    2        -0.765435       -20.8285


  List of ionic basis orbitals and eigenvalues:
    n    l      energy [Ha]    energy [eV]    outer radius [A]
    5    1        -0.465587       -12.6693       5.591446
    5    0        -0.650331       -17.6964       5.591446

 
  Mo                   hydrogenic:
 
  List of hydrogenic basis orbitals: 
    n    l      effective z      eigenvalue [eV]  inner max. [A]     outer max. [A]     outer radius [A]   
    4    3         8.400000       -60.0010           1.009788           1.009788           4.654634
    3    2         2.800000       -11.8048           1.687401           1.687401           5.591446
    5    4        12.000000       -78.3687           1.100005           1.100005           4.654634
 
 
  W                    ion:

  List of free ionic orbitals and eigenvalues:
    n    l      energy [Ha]    energy [eV]
    1    0     -2765.664016    -75257.5469
    2    0      -448.543169    -12205.4806
    3    0      -102.635476     -2792.8534
    4    0       -21.655379      -589.2728
    5    0        -3.604872       -98.0936
    6    0        -0.752243       -20.4696
    2    1      -391.740682    -10659.8063
    3    1       -86.129333     -2343.6984
    4    1       -16.272893      -442.8080
    5    1        -2.280103       -62.0448
    3    2       -67.229405     -1829.4052
    4    2        -9.468448      -257.6496
    5    2        -0.806537       -21.9470
    4    3        -1.931058       -52.5468


  List of ionic basis orbitals and eigenvalues:
    n    l      energy [Ha]    energy [eV]    outer radius [A]
    6    1        -0.508246       -13.8301       5.568868
    6    0        -0.752227       -20.4691       5.568868

 
  W                    hydrogenic:
 
  List of hydrogenic basis orbitals: 
    n    l      effective z      eigenvalue [eV]  inner max. [A]     outer max. [A]     outer radius [A]   
    4    3         7.800000       -51.7355           1.082252           1.082252           4.928043
    4    2         5.800000       -28.5979           0.616741           1.946131           5.568868
    5    4        12.400000       -83.6803           1.069102           1.069102           4.523866
 
 
  Se                   ion:

  List of free ionic orbitals and eigenvalues:
    n    l      energy [Ha]    energy [eV]
    1    0      -467.261007    -12714.8189
    2    0       -60.104893     -1635.5374
    3    0        -8.743714      -237.9286
    4    0        -1.414053       -38.4783
    2    1       -52.964156     -1441.2280
    3    1        -6.516916      -177.3343
    4    1        -0.961869       -26.1738
    3    2        -2.844511       -77.4031


  List of ionic basis orbitals and eigenvalues:
    n    l      energy [Ha]    energy [eV]    outer radius [A]
    4    0        -1.414046       -38.4782       4.287795

 
  Se                   hydrogenic:
 
  List of hydrogenic basis orbitals: 
    n    l      effective z      eigenvalue [eV]  inner max. [A]     outer max. [A]     outer radius [A]   
    3    2         4.300000       -27.9518           1.103845           1.103845           5.475439
    2    1         1.600000        -8.6828           1.326010           1.326010           5.610963
    4    3         7.200000       -44.0822           1.173422           1.173422           5.214131
 
  Creating atomic-like basis functions for current effective potential.

  Species S                   :

  List of atomic basis orbitals and eigenvalues:
    n    l      energy [Ha]    energy [eV]    outer radius [A]
    1    0       -88.680731     -2413.1255       0.871402
    2    0        -7.781719      -211.7513       2.923031
    3    0        -0.633662       -17.2428       5.452614
    2    1        -5.751976      -156.5192       3.303131
    3    1        -0.257086        -6.9957       5.587574


  Species Mo                  :

  List of atomic basis orbitals and eigenvalues:
    n    l      energy [Ha]    energy [eV]    outer radius [A]
    1    0      -745.344654    -20281.8600       0.312279
    2    0      -103.288246     -2810.6162       0.850943
    3    0       -17.516687      -476.6533       2.051947
    4    0        -2.358559       -64.1796       4.948023
    5    0        -0.145159        -3.9500       5.591446
    2    1       -92.308627     -2511.8455       0.882731
    3    1       -13.936005      -379.2180       2.235275
    4    1        -1.408138       -38.3174       5.259905
    3    2        -8.119011      -220.9295       2.785462
    4    2        -0.132984        -3.6187       5.591446


  Species W                   :

  List of atomic basis orbitals and eigenvalues:
    n    l      energy [Ha]    energy [eV]    outer radius [A]
    1    0     -2764.899999    -75236.7570       0.164704
    2    0      -447.822848    -12185.8797       0.422198
    3    0      -101.923634     -2773.4832       0.889980
    4    0       -20.945301      -569.9506       1.922484
    5    0        -2.899582       -78.9016       4.750581
    6    0        -0.207066        -5.6345       5.568868
    2    1      -391.021390    -10640.2334       0.443357
    3    1       -85.417793     -2324.3364       0.957714
    4    1       -15.562838      -423.4864       2.172477
    5    1        -1.582233       -43.0547       5.175013
    3    2       -66.517936     -1810.0451       1.043279
    4    2        -8.758436      -238.3292       2.740506
    5    2        -0.161873        -4.4048       5.568868
    4    3        -1.221948       -33.2509       5.112134


  Species Se                  :

  List of atomic basis orbitals and eigenvalues:
    n    l      energy [Ha]    energy [eV]    outer radius [A]
    1    0      -466.337810    -12689.6975       0.390501
    2    0       -59.202598     -1610.9847       1.103845
    3    0        -7.847116      -213.5309       2.971370
    4    0        -0.634372       -17.2621       5.475439
    2    1       -52.061107     -1416.6548       1.145080
    3    1        -5.620941      -152.9536       3.399057
    4    1        -0.238469        -6.4891       5.542786
    3    2        -1.951949       -53.1152       4.904963

  Assembling full basis from fixed parts.
  | Species S :   atomic orbital   1 s accepted.
  | Species S :   atomic orbital   2 s accepted.
  | Species S :    ionic orbital   3 s accepted.
  | Species S :   atomic orbital   3 s accepted.
  | Species S :   atomic orbital   2 p accepted.
  | Species S :   atomic orbital   3 p accepted.
  | Species S :    hydro orbital   2 p accepted.
  | Species S :    ionic orbital   3 d accepted.
  | Species S :    hydro orbital   4 d accepted.
  | Species S :    hydro orbital   4 f accepted.
  | Species S :    hydro orbital   5 g accepted.
  | Species Mo :   atomic orbital   1 s accepted.
  | Species Mo :   atomic orbital   2 s accepted.
  | Species Mo :   atomic orbital   3 s accepted.
  | Species Mo :   atomic orbital   4 s accepted.
  | Species Mo :   atomic orbital   5 s accepted.
  | Species Mo :    ionic orbital   5 s accepted.
  | Species Mo :   atomic orbital   2 p accepted.
  | Species Mo :   atomic orbital   3 p accepted.
  | Species Mo :   atomic orbital   4 p accepted.
  | Species Mo :    ionic orbital   5 p accepted.
  | Species Mo :   atomic orbital   3 d accepted.
  | Species Mo :   atomic orbital   4 d accepted.
  | Species Mo :    hydro orbital   3 d accepted.
  | Species Mo :    hydro orbital   4 f accepted.
  | Species Mo :    hydro orbital   5 g accepted.
  | Species W :   atomic orbital   1 s accepted.
  | Species W :   atomic orbital   2 s accepted.
  | Species W :   atomic orbital   3 s accepted.
  | Species W :   atomic orbital   4 s accepted.
  | Species W :   atomic orbital   5 s accepted.
  | Species W :   atomic orbital   6 s accepted.
  | Species W :    ionic orbital   6 s accepted.
  | Species W :   atomic orbital   2 p accepted.
  | Species W :   atomic orbital   3 p accepted.
  | Species W :   atomic orbital   4 p accepted.
  | Species W :   atomic orbital   5 p accepted.
  | Species W :    ionic orbital   6 p accepted.
  | Species W :   atomic orbital   3 d accepted.
  | Species W :   atomic orbital   4 d accepted.
  | Species W :   atomic orbital   5 d accepted.
  | Species W :    hydro orbital   4 d accepted.
  | Species W :    hydro orbital   4 f accepted.
  | Species W :   atomic orbital   4 f accepted.
  | Species W :    hydro orbital   5 g accepted.
  | Species Se :   atomic orbital   1 s accepted.
  | Species Se :   atomic orbital   2 s accepted.
  | Species Se :   atomic orbital   3 s accepted.
  | Species Se :    ionic orbital   4 s accepted.
  | Species Se :   atomic orbital   4 s accepted.
  | Species Se :   atomic orbital   2 p accepted.
  | Species Se :   atomic orbital   3 p accepted.
  | Species Se :   atomic orbital   4 p accepted.
  | Species Se :    hydro orbital   2 p accepted.
  | Species Se :   atomic orbital   3 d accepted.
  | Species Se :    hydro orbital   3 d accepted.
  | Species Se :    hydro orbital   4 f accepted.
 
  Basis size parameters after reduction:
  | Total number of radial functions:       57
  | Total number of basis functions :     3510
 
  Per-task memory consumption for arrays in subroutine allocate_ext:
  |          21.731208MB.
  Testing on-site integration grid accuracy.
  |  Species  Function  <phi|h_atom|phi> (log., in eV)  <phi|h_atom|phi> (rad., in eV)
           1        1              -2413.1254568977              -2413.1254096663
           1        2               -211.7513411281               -211.7513404762
           1        3                -16.9725280787                -16.9725279206
           1        4                  7.6024436204                  7.6024549059
           1        5               -156.5192206929               -156.5192205451
           1        6                 -6.9959757887                 -6.9959777655
           1        7                  6.8896462808                  6.8895564741
           1        8                  6.0214250550                  6.0214220200
           1        9                 19.6206468977                 19.6206494558
           1       10                 24.7008710786                 24.7008710738
           1       11                 47.5292252001                 47.5292260486
           2       12             -20281.8599610543             -20281.8584300616
           2       13              -2810.6161812280              -2810.6161551921
           2       14               -476.6533163555               -476.6533136395
           2       15                -64.1796433667                -64.1796426456
           2       16                 -3.9595702532                 -3.9596328763
           2       17                  5.0608548288                  5.0603628221
           2       18              -2511.8455406047              -2511.8455385741
           2       19               -379.2179896350               -379.2179882338
           2       20                -38.3173891619                -38.3173886619
           2       21                  0.2493245095                  0.2492931069
           2       22               -220.9295301098               -220.9295297081
           2       23                 -3.6195697699                 -3.6195754704
           2       24                  7.1428000922                  7.1426882355
           2       25                 23.3975871087                 23.3975871819
           2       26                 50.2449608881                 50.2449608586
           3       27             -75236.7569897398             -75236.7398021816
           3       28             -12185.8796968880             -12185.8793671389
           3       29              -2773.4831911435              -2773.4831624928
           3       30               -569.9506420417               -569.9506363235
           3       31                -78.9016401752                -78.9016385968
           3       32                 -5.6381498812                 -5.6381407171
           3       33                  5.0326501766                  5.0327702725
           3       34             -10640.2333851158             -10640.2333803363
           3       35              -2324.3364165327              -2324.3364072919
           3       36               -423.4863614587               -423.4863574859
           3       37                -43.0547390741                -43.0547381500
           3       38                 -0.2794590886                 -0.2794514857
           3       39              -1810.0451240061              -1810.0451202456
           3       40               -238.3291788477               -238.3291766726
           3       41                 -4.4054312547                 -4.4054293963
           3       42                  8.2928303329                  8.2928369211
           3       43                 17.5443472769                 17.5443472707
           3       44                -29.4388907480                -29.4388903130
           3       45                 49.8060668072                 49.8060668107
           4       46             -12689.6974611609             -12689.6967666984
           4       47              -1610.9846578580              -1610.9846472470
           4       48               -213.5308789869               -213.5308777267
           4       49                -17.0464428502                -17.0464426496
           4       50                  6.7356859379                  6.7356842047
           4       51              -1416.6548010133              -1416.6548002108
           4       52               -152.9535734377               -152.9535727493
[...]
   1573       0.00000           0.259694            7.06664
   1574       0.00000           0.259926            7.07294
   1575       0.00000           0.260357            7.08467
   1576       0.00000           0.260366            7.08492
   1577       0.00000           0.260751            7.09539
   1578       0.00000           0.262856            7.15268
   1579       0.00000           0.264494            7.19725
   1580       0.00000           0.264515            7.19783
   1581       0.00000           0.265872            7.23475
   1582       0.00000           0.266837            7.26101
   1583       0.00000           0.267211            7.27119
   1584       0.00000           0.267506            7.27921
   1585       0.00000           0.267527            7.27978
   1586       0.00000           0.275510            7.49700
   1587       0.00000           0.275546            7.49799
   1588       0.00000           0.283245            7.70749
   1589       0.00000           0.283255            7.70775
   1590       0.00000           0.286120            7.78572
   1591       0.00000           0.286124            7.78583
   1592       0.00000           0.286344            7.79181
   1593       0.00000           0.287311            7.81814
   1594       0.00000           0.289875            7.88790
   1595       0.00000           0.289886            7.88820
   1596       0.00000           0.293654            7.99073
   1597       0.00000           0.293725            7.99267
   1598       0.00000           0.293732            7.99285
   1599       0.00000           0.294787            8.02155
   1600       0.00000           0.294799            8.02189
   1601       0.00000           0.295808            8.04935
   1602       0.00000           0.296317            8.06320
   1603       0.00000           0.297234            8.08815
   1604       0.00000           0.297433            8.09357
   1605       0.00000           0.297448            8.09396
   1606       0.00000           0.304867            8.29585
   1607       0.00000           0.304871            8.29596
   1608       0.00000           0.308782            8.40238
   1609       0.00000           0.312305            8.49825
   1610       0.00000           0.312309            8.49836
   1611       0.00000           0.312837            8.51272
   1612       0.00000           0.329421            8.96399
   1613       0.00000           0.329431            8.96428
   1614       0.00000           0.330078            8.98187
   1615       0.00000           0.330097            8.98241
   1616       0.00000           0.332853            9.05738
   1617       0.00000           0.332856            9.05747
   1618       0.00000           0.333221            9.06739
   1619       0.00000           0.333617            9.07817
   1620       0.00000           0.334018            9.08908
   1621       0.00000           0.334536            9.10320
   1622       0.00000           0.335998            9.14297
   1623       0.00000           0.336015            9.14343
   1624       0.00000           0.336103            9.14583
   1625       0.00000           0.336112            9.14608
   1626       0.00000           0.337008            9.17045
   1627       0.00000           0.337914            9.19510
   1628       0.00000           0.338313            9.20597
   1629       0.00000           0.338325            9.20628
   1630       0.00000           0.338784            9.21878
   1631       0.00000           0.338802            9.21927
   1632       0.00000           0.339231            9.23096
   1633       0.00000           0.339241            9.23123
   1634       0.00000           0.339272            9.23205
   1635       0.00000           0.341156            9.28332
   1636       0.00000           0.341476            9.29204
   1637       0.00000           0.342257            9.31328
   1638       0.00000           0.342260            9.31338
   1639       0.00000           0.343667            9.35164
   1640       0.00000           0.344677            9.37913
   1641       0.00000           0.344688            9.37944
   1642       0.00000           0.344892            9.38499
   1643       0.00000           0.344892            9.38500
   1644       0.00000           0.348655            9.48739
   1645       0.00000           0.348666            9.48769
   1646       0.00000           0.348692            9.48839
   1647       0.00000           0.350455            9.53637
   1648       0.00000           0.352608            9.59495
   1649       0.00000           0.352636            9.59571
   1650       0.00000           0.352642            9.59588
   1651       0.00000           0.357012            9.71479
   1652       0.00000           0.357975            9.74100
   1653       0.00000           0.357997            9.74160
   1654       0.00000           0.382641           10.41218

  What follows are estimated values for band gap, HOMO, LUMO, etc.
  | They are estimated on a discrete k-point grid and not necessarily exact.
  | For converged numbers, create a DOS and/or band structure plot on a denser k-grid.

  Highest occupied state (VBM) at     -5.63215087 eV (relative to internal zero)
  | Occupation number:      2.00000000
  | K-point:       9 at    0.500000    0.500000    0.000000 (in units of recip. lattice)

  Lowest unoccupied state (CBM) at    -5.22469751 eV (relative to internal zero)
  | Occupation number:      0.00000000
  | K-point:       6 at    0.250000    0.500000    0.000000 (in units of recip. lattice)

  ESTIMATED overall HOMO-LUMO gap:      0.40745335 eV between HOMO at k-point 9 and LUMO at k-point 6
  | This appears to be an indirect band gap.
  | Smallest direct gap :      0.40908765 eV for k_point 6 at    0.250000    0.500000    0.000000 (in units of recip. lattice)
  The gap value is above 0.2 eV. Unless you are using a very sparse k-point grid,
  this system is most likely an insulator or a semiconductor.

  Writing energy levels:
  | Potential vacuum level, "upper" slab surface:    -0.05160549 eV
  | Potential vacuum level, "lower" slab surface:    -0.05119545 eV
  | Work function ("upper" slab surface)        :     5.32392055 eV
  | Work function ("lower" slab surface)        :     5.32433060 eV
  *** Warning: band gap may exist, check the suitability to define work function using chemical potential.
  | VBM (reference: upper vacuum level)         :     5.58054538 eV
  | CBM (reference: upper vacuum level)         :     5.17309202 eV

  Self-consistency cycle converged.


------------------------------------------------------------
  End self-consistency iteration #    23       :  max(cpu_time)    wall_clock(cpu1)
  | Time for this iteration                    :       16.556 s          16.570 s
  | Charge density update                      :        0.000 s           0.000 s
  | Density mixing                             :        0.727 s           0.728 s
  | Hartree multipole update                   :        0.012 s           0.012 s
  | Hartree multipole summation                :        3.263 s           3.263 s
  | Integration                                :        5.737 s           5.740 s
  | Solution of K.-S. eqns.                    :        6.813 s           6.817 s
  | Total energy evaluation                    :        0.001 s           0.000 s

  Partial memory accounting:
  | Current value for overall tracked memory usage:
  |   Minimum:      143.325 MB (on task  7)
  |   Maximum:      144.529 MB (on task  0)
  |   Average:      144.127 MB
  | Peak value for overall tracked memory usage:
  |   Minimum:      262.894 MB (on task  7 after allocating temp_ham_ovlp)
  |   Maximum:      264.098 MB (on task  0 after allocating temp_ham_ovlp)
  |   Average:      263.695 MB
  | Largest tracked array allocation so far:
  |   Minimum:       59.785 MB (overlap_matrix on task  0)
  |   Maximum:       59.785 MB (overlap_matrix on task  0)
  |   Average:       59.785 MB
  Note:  These values currently only include a subset of arrays which are explicitly tracked.
  The "true" memory usage will be greater.
------------------------------------------------------------
  Obtaining max. number of non-zero basis functions in each batch .
  Evaluating KS electron density on previously omitted grid points, using the density matrix.
  Evaluating density matrix
  Finished density matrix calculation
  | Time :     0.528 s

  Entering Libmbd.
  Libmbd: VdW method: mbd-nl
  Libmbd: Evaluating kinetic energy density...

  Evaluating density matrix
  Finished density matrix calculation
  | Time :     0.527 s

  Libmbd: Performing Hirshfeld analysis...
  Libmbd: Calculating MBD energy...
  Libmbd: Evaluated energy: -0.65139010688138788

  Leaving Libmbd.


  Total energy components:
  | Sum of eigenvalues            :     -261402.50126454 Ha    -7113123.97117113 eV
  | XC energy correction          :       -9140.58841088 Ha     -248728.06580464 eV
  | XC potential correction       :       11934.46738716 Ha      324753.38087459 eV
  | Free-atom electrostatic energy:     -160636.41846723 Ha    -4371139.34761462 eV
  | Hartree energy correction     :         -18.97152019 Ha        -516.24133047 eV
  | vdW energy correction         :          -0.65139011 Ha         -17.72522666 eV
  | Entropy correction            :          -0.00000000 Ha          -0.00000000 eV
  | ---------------------------
  | Total energy                  :     -419264.66366579 Ha   -11408771.97027293 eV
  | Total energy, T -> 0          :     -419264.66366579 Ha   -11408771.97027293 eV  <-- do not rely on this value for anything but (periodic) metals
  | Electronic free energy        :     -419264.66366579 Ha   -11408771.97027293 eV

  Derived energy quantities:
  | Kinetic energy                :      460944.04358229 Ha    12542925.60290237 eV
  | Electrostatic energy          :     -871067.46744709 Ha   -23702951.78214400 eV
  | Energy correction for multipole
  | error in Hartree potential    :          -0.01091703 Ha          -0.29706753 eV
  | Sum of eigenvalues per atom                           :      -96123.29690772 eV
  | Total energy (T->0) per atom                          :     -154172.59419288 eV  <-- do not rely on this value for anything but (periodic) metals
  | Electronic free energy per atom                       :     -154172.59419288 eV
  Timings for VdW correction (Tkatchenko-Scheffler 2009 or later):
  | CPU time:       15.770 s, Wall clock time:       15.813 s.

  Energy and forces in a compact form:
  | Total energy uncorrected      :         -0.114087719702729E+08 eV
  | Total energy corrected        :         -0.114087719702729E+08 eV  <-- do not rely on this value for anything but (periodic) metals
  | Electronic free energy        :         -0.114087719702729E+08 eV

  ------------------------------------ 
  Start decomposition of the XC Energy 
  ------------------------------------ 
  X and C from original XC functional choice 
  Hartree-Fock Energy :          0.000000000 Ha              0.000000000 eV
  X Energy            :      -9000.344145111 Ha        -244911.825164951 eV
  C Energy            :       -140.244265766 Ha          -3816.240639692 eV
  Total XC Energy     :      -9140.588410878 Ha        -248728.065804643 eV
  ------------------------------------ 
  LDA X and C from self-consistent density 
  X Energy LDA        :      -8597.129134796 Ha        -233939.786483088 eV
  C Energy LDA        :       -246.482613816 Ha          -6707.133177124 eV
  ------------------------------------ 
  End decomposition of the XC Energy 
  ------------------------------------ 

------------------------------------------------------------

  ------------------------------------------------------------
                      Starting Cube Output
  ------------------------------------------------------------

  The following cube files will be created:

  --------------------------------------
    Cube file:            1
    cube origin       3.9595      6.8579      2.5995
    cube edge 100      0.1584     -0.0000      0.0000
    cube edge 100     -0.0792      0.1372      0.0000
    cube edge 105     -0.0000     -0.0000      0.1000
    cube filename: cube_001_stm_01.cube
  --------------------------------------

  * WARNING: The output  of  the cube file is in 1/Ang^3  or
  * WARNING: 1/Ang^3/2,  but  the cube voxel  definition  is
  * WARNING: in atomic units. Be careful when postprocessing
  * WARNING: Consistent units can be chosen in control.in by
  *               cube_content_unit  bohr

  Evaluating density matrix
  Finished density matrix calculation
  | Time :     0.523 s
 
   Starting cube            1
   Cube will be divided in
     100 minicubes along the first,
     100 minicubes along the second, and
     105 minicubes along the third cube edge
   Dividing grid points on processors

      => Writing 4101kB binary STM file for WSxM.

   Cube file 1 finished.

  Cube output                                             :  max(cpu_time)    wall_clock(cpu1)
  | Total time for cube output                            :        130.971             131.168
------------------------------------------------------------

------------------------------------------------------------------------------
  Final output of selected total energy values:

  The following output summarizes some interesting total energy values
  at the end of a run (AFTER all relaxation, molecular dynamics, etc.).

  | Total energy of the DFT / Hartree-Fock s.c.f. calculation      :      -11408771.970272930 eV
  | Final zero-broadening corrected energy (caution - metals only) :      -11408771.970272930 eV
  | For reference only, the value of 1 Hartree used in FHI-aims is :             27.211384500 eV
  | For reference only, the overall average (free atom contribution
  | + realspace contribution) of the electrostatic potential after
  | s.c.f. convergence is                                          :             -1.205475454 eV

  Before relying on these values, please be sure to understand exactly which
  total energy value is referred to by a given number. Different objects may
  all carry the same name 'total energy'. Definitions:

  Total energy of the DFT / Hartree-Fock s.c.f. calculation:
  | Note that this energy does not include ANY quantities calculated after the
  | s.c.f. cycle, in particular not ANY RPA, MP2, etc. many-body perturbation terms.

  Final zero-broadening corrected energy:
  | For metallic systems only, a broadening of the occupation numbers at the Fermi
  | level can be extrapolated back to zero broadening by an electron-gas inspired
  | formula. For all systems that are not real metals, this value can be
  | meaningless and should be avoided.

------------------------------------------------------------------------------
  Methods described in the following list of references were used in this FHI-aims run.
  If you publish the results, please make sure to cite these reference if they apply.
  FHI-aims is an academic code, and for our developers (often, Ph.D. students
  and postdocs), scientific credit in the community is essential.
  Thank you for helping us!

  For any use of FHI-aims, please cite:

    Volker Blum, Ralf Gehrke, Felix Hanke, Paula Havu, Ville Havu,
    Xinguo Ren, Karsten Reuter, and Matthias Scheffler
    'Ab initio molecular simulations with numeric atom-centered orbitals'
    Computer Physics Communications 180, 2175-2196 (2009)
    http://dx.doi.org/10.1016/j.cpc.2009.06.022


  The provided symmetry information was generated with SPGlib:

    Atsushi Togo, Yusuke Seto, Dimitar Pashov
    SPGlib 1.7.3 obtained from http://spglib.sourceforge.net
    Copyright (C) 2008 Atsushi Togo


  The ELSI infrastructure was used in your run to solve the Kohn-Sham electronic structure.
  Please check out http://elsi-interchange.org to learn more.
  If scalability is important for your project, please acknowledge ELSI by citing:

    V. W-z. Yu, F. Corsetti, A. Garcia, W. P. Huhn, M. Jacquelin, W. Jia,
    B. Lange, L. Lin, J. Lu, W. Mi, A. Seifitokaldani, A. Vazquez-Mayagoitia,
    C. Yang, H. Yang, and V. Blum
    'ELSI: A unified software interface for Kohn-Sham electronic structure solvers'
    Computer Physics Communications 222, 267-285 (2018).
    http://dx.doi.org/10.1016/j.cpc.2017.09.007


  For the real-space grid partitioning and parallelization used in this calculation, please cite:

    Ville Havu, Volker Blum, Paula Havu, and Matthias Scheffler,
    'Efficient O(N) integration for all-electron electronic structure calculation'
    'using numerically tabulated basis functions'
    Journal of Computational Physics 228, 8367-8379 (2009).
    http://dx.doi.org/10.1016/j.jcp.2009.08.008

  Of course, there are many other important community references, e.g., those cited in the
  above references. Our list is limited to references that describe implementations in the
  FHI-aims code. The reason is purely practical (length of this list) - please credit others as well.

 * A warning regarding the cube file format (cube_content_unit legacy)
 * was issued above. The output is Angstrom-based but the cube voxel
 * definition is in atomic units. Please check carefully.

------------------------------------------------------------
          Leaving FHI-aims.
          Date     :  20210913, Time     :  223718.510

          Computational steps:
          | Number of self-consistency cycles          :           23
          | Number of SCF (re)initializations          :            1

          Detailed time accounting                     :  max(cpu_time)    wall_clock(cpu1)
          | Total time                                 :      784.032 s         785.112 s
          | Preparation time                           :        1.181 s           1.220 s
          | Boundary condition initalization           :        1.830 s           1.838 s
          | Grid partitioning                          :        2.316 s           2.322 s
          | Preloading free-atom quantities on grid    :        1.340 s           1.357 s
          | Free-atom superposition energy             :        0.135 s           0.137 s
          | Total time for integrations                :      140.725 s         140.815 s
          | Total time for solution of K.-S. equations :      166.651 s         166.760 s
          | Total time for density update              :      229.727 s         229.893 s
          | Total time for mixing & preconditioning    :       17.008 s          17.021 s
          | Total time for Hartree multipole update    :        0.280 s           0.282 s
          | Total time for Hartree multipole sum       :       74.984 s          75.021 s
          | Total time for total energy evaluation     :        0.027 s           0.028 s
          | Total time for scaled ZORA corrections     :        0.000 s           0.000 s
          | Total time for vdW correction              :       15.770 s          15.813 s
          | Total time for cube output                 :      130.971 s         131.168 s

          Partial memory accounting:
          | Residual value for overall tracked memory usage across tasks:     0.000000 MB (should be 0.000000 MB)
          | Peak values for overall tracked memory usage:
          |   Minimum:      262.894 MB (on task  7 after allocating temp_ham_ovlp)
          |   Maximum:      264.098 MB (on task  0 after allocating temp_ham_ovlp)
          |   Average:      263.695 MB
          | Largest tracked array allocation:
          |   Minimum:       59.785 MB (overlap_matrix on task  0)
          |   Maximum:       59.785 MB (overlap_matrix on task  0)
          |   Average:       59.785 MB
          Note:  These values currently only include a subset of arrays which are explicitly tracked.
          The "true" memory usage will be greater.

          Have a nice day.
------------------------------------------------------------
