------------------------------------------------------------
          Invoking FHI-aims ...

          When using FHI-aims, please cite the following reference:

            Volker Blum, Ralf Gehrke, Felix Hanke, Paula Havu,
            Ville Havu, Xinguo Ren, Karsten Reuter, and Matthias Scheffler,
            'Ab Initio Molecular Simulations with Numeric Atom-Centered Orbitals',
            Computer Physics Communications 180, 2175-2196 (2009)

          In addition, many other developments in FHI-aims are likely important for
          your particular application. A partial list of references is given at the end of
          this file. Thank you for giving credit to the authors of these developments.

          For any questions about FHI-aims, please visit our slack channel at

            https://fhi-aims.slack.com

          and our main development and support site at

            https://aims-git.rz-berlin.mpg.de .

          The latter site, in particular, has a wiki to collect information, as well
          as an issue tracker to log discussions, suggest improvements, and report issues
          or bugs. https://aims-git.rz-berlin.mpg.de is also the main development site
          of the project and all new and updated code versions can be obtained there.
          Please send an email to aims-coordinators@fhi-berlin.mpg.de and we will add
          you to these sites. They are for you and everyone is welcome there.

------------------------------------------------------------



  Date     :  20210927, Time     :  125229.385
  Time zero on CPU 1             :   0.214757000000000E+00  s.
  Internal wall clock time zero  :           401979149.385  s.

  FHI-aims created a unique identifier for this run for later identification
  aims_uuid : 5A0DCFEA-7FC7-4AA6-AF9E-D965AD4CE9B9

  Build configuration of the current instance of FHI-aims
  -------------------------------------------------------
  FHI-aims version      : 210513
  Commit number         : 1a2d0b161
  CMake host system     : Linux-4.12.14-122.63-default
  CMake version         : 3.5.2
  Fortran compiler      : /mpcdf/soft/SLE_12/packages/x86_64/intel_parallel_studio/2020.1/compilers_and_libraries_2020.1.217/linux/mpi/intel64/bin/mpiifort (Intel) version 19.1.0.20200306
  Fortran compiler flags: -O3 -ip -fp-model precise
  C compiler            : /mpcdf/soft/SLE_12/packages/x86_64/intel/19.1.1/bin/icc (Intel) version 19.1.0.20200306
  C compiler flags      : -O3 -ip -fp-model precise -std=gnu99
  C++ compiler          : /mpcdf/soft/SLE_12/packages/x86_64/intel/19.1.1/bin/icpc (Intel) version 19.1.0.20200306
  C++ compiler flags    : -O3 -ip -fp-model precise -std=gnu99
  Using MPI
  Using ScaLAPACK
  Using LibXC
  Using i-PI
  Using RLSY
  Linking against: /mpcdf/soft/SLE_12/packages/x86_64/intel_parallel_studio/2020.1/mkl/lib/intel64/libmkl_intel_lp64.so
                   /mpcdf/soft/SLE_12/packages/x86_64/intel_parallel_studio/2020.1/mkl/lib/intel64/libmkl_sequential.so
                   /mpcdf/soft/SLE_12/packages/x86_64/intel_parallel_studio/2020.1/mkl/lib/intel64/libmkl_core.so
                   /mpcdf/soft/SLE_12/packages/x86_64/intel_parallel_studio/2020.1/mkl/lib/intel64/libmkl_blacs_intelmpi_lp64.so
                   /mpcdf/soft/SLE_12/packages/x86_64/intel_parallel_studio/2020.1/mkl/lib/intel64/libmkl_scalapack_lp64.so

  Using       40 parallel tasks.
  Task        0 on host co1603 reporting.
  Task        1 on host co1603 reporting.
  Task        2 on host co1603 reporting.
  Task        3 on host co1603 reporting.
  Task        4 on host co1603 reporting.
  Task        5 on host co1603 reporting.
  Task        6 on host co1603 reporting.
  Task        7 on host co1603 reporting.
  Task        8 on host co1603 reporting.
  Task        9 on host co1603 reporting.
  Task       10 on host co1603 reporting.
  Task       11 on host co1603 reporting.
  Task       12 on host co1603 reporting.
  Task       13 on host co1603 reporting.
  Task       14 on host co1603 reporting.
  Task       15 on host co1603 reporting.
  Task       16 on host co1603 reporting.
  Task       17 on host co1603 reporting.
  Task       18 on host co1603 reporting.
  Task       19 on host co1603 reporting.
  Task       20 on host co1603 reporting.
  Task       21 on host co1603 reporting.
  Task       22 on host co1603 reporting.
  Task       23 on host co1603 reporting.
  Task       24 on host co1603 reporting.
  Task       25 on host co1603 reporting.
  Task       26 on host co1603 reporting.
  Task       27 on host co1603 reporting.
  Task       28 on host co1603 reporting.
  Task       29 on host co1603 reporting.
  Task       30 on host co1603 reporting.
  Task       31 on host co1603 reporting.
  Task       32 on host co1603 reporting.
  Task       33 on host co1603 reporting.
  Task       34 on host co1603 reporting.
  Task       35 on host co1603 reporting.
  Task       36 on host co1603 reporting.
  Task       37 on host co1603 reporting.
  Task       38 on host co1603 reporting.
  Task       39 on host co1603 reporting.

  Performing system and environment tests:
  | Environment variable OMP_NUM_THREADS correctly set to 1.
  | Checking for ScaLAPACK...
  | Testing pdtran()...
  | All pdtran() tests passed.

  Obtaining array dimensions for all initial allocations:
  
  -----------------------------------------------------------------------
  Parsing control.in (first pass over file, find array dimensions only).
  The contents of control.in will be repeated verbatim below
  unless switched off by setting 'verbatim_writeout .false.' .
  in the first line of control.in .
  -----------------------------------------------------------------------
  
  ##### Physical settings  ################
  xc                 pbe
  spin               none
  charge      0.0
  relativistic       atomic_zora scalar
  #elsi_restart read
  # SCF settings
  
  #vdw_correction_hirshfeld
  # k-grid settings  (to be adjusted)
  #empty_states 8
  #use_dipole_correction
  #include_spin_orbit non_self_consistent
  
  mixer   pulay
  n_max_pulay        12 # high for metal
  charge_mix_param   0.1 #low for metal
  many_body_dispersion_nl    beta=0.81
  ################################################################################
  #
  #  FHI-aims code project
  # Volker Blum, Fritz Haber Institute Berlin, 2009
  #
  #  Suggested "tight" defaults for S atom (to be pasted into control.in file)
  #
  #  Revised Jan 04, 2011, following tests (SiC) done by Lydia Nemec:
  #     d and g functions of tier 2 now enabled by default.
  #
  ################################################################################
    species        S
  #     global species definitions
      nucleus             16
      mass                32.065
  #
      l_hartree           6
  #
      cut_pot             4.0          2.0  1.0
      basis_dep_cutoff    1e-4
  #
      radial_base         44 7.0
      radial_multiplier   2
      angular_grids       specified
        division   0.4665  110
        division   0.5810  194
        division   0.7139  302
        division   0.8274  434
  #      division   0.9105  590
  #      division   1.0975  770
  #      division   1.2028  974
  #      outer_grid  974
        outer_grid  434
  ################################################################################
  #
  #  Definition of "minimal" basis
  #
  ################################################################################
  #     valence basis states
      valence      3  s   2.
      valence      3  p   4.
  #     ion occupancy
      ion_occ      3  s   1.
      ion_occ      3  p   3.
  ################################################################################
  #
  #  Suggested additional basis functions. For production calculations,
  #  uncomment them one after another (the most important basis functions are
  #  listed first).
  #
  #  Constructed for dimers: 1.6 A, 1.9 A, 2.5 A, 3.25 A, 4.0 A
  #
  ################################################################################
  #  "First tier" - improvements: -652.81 meV to -45.53 meV
       ionic 3 d auto
       hydro 2 p 1.8
       hydro 4 f 7
       ionic 3 s auto
  #  "Second tier" - improvements: -30.20 meV to -1.74 meV
       hydro 4 d 6.2
       hydro 5 g 10.8
  #     hydro 4 p 4.9
  #     hydro 5 f 10
  #     hydro 1 s 0.8
  #  "Third tier" - improvements: -1.04 meV to -0.20 meV
  #     hydro 3 d 3.9
  #     hydro 3 d 2.7
  #     hydro 5 g 12
  #     hydro 4 p 10.4
  #     hydro 5 f 12.4
  #     hydro 2 s 1.9
  #  "Fourth tier" - improvements: -0.35 meV to -0.06 meV
  #     hydro 4 d 10.4
  #     hydro 4 p 7.2
  #     hydro 4 d 10
  #     hydro 5 g 19.2
  #     hydro 4 s 12
  
  ################################################################################
  #
  # For methods that use the localized form of the "resolution of identity" for
  # the two-electron Coulomb operator (RI_method LVL), particularly Hartree-Fock and
  # hybrid density functional calculations, the highest accuracy can be obtained by
  # uncommenting the line beginning with "for_aux"  below, thus adding an extra g radial
  # function to the construction of the product basis set for the expansion.
  # See Ref. New J. Phys. 17, 093020 (2015) for more information, particularly Figs. 1 and 6.
  #
  ################################################################################
  #
  # for_aux hydro 5 g 6.0
  ################################################################################
  #
  #  FHI-aims code project
  # Volker Blum, Fritz Haber Institute Berlin, 2009
  #
  #  Suggested "tight" defaults for Mo atom (to be pasted into control.in file)
  #
  ################################################################################
    species        Mo
  #     global species definitions
      nucleus             42
      mass                95.94
  #
      l_hartree           6
  #
      cut_pot             4.0  2.0  1.0
      basis_dep_cutoff    1e-4
  #
      radial_base         59 7.0
      radial_multiplier   2
      angular_grids specified
        division   0.3117   50
        division   0.6750  110
        division   1.0351  194
        division   1.2073  302
        division   1.6402  434
  #      division   1.9185  590
  #      division   2.0237  770
  #      division   2.0980  974
  #      division   2.7972 1202
  #      outer_grid  974
        outer_grid  434
  ################################################################################
  #
  #  Definition of "minimal" basis
  #
  ################################################################################
  #     valence basis states
      valence      5  s   1.
      valence      4  p   6.
      valence      4  d   5.
  #     ion occupancy
      ion_occ     5  s   0.
      ion_occ     4  p   6.
      ion_occ     4  d   4.
  ################################################################################
  #
  #  Suggested additional basis functions. For production calculations,
  #  uncomment them one after another (the most important basis functions are
  #  listed first).
  #
  #  Constructed for dimers: 1.675 A, 1.9 A, 2.375 A, 3.00 A, 4.00 A
  #
  ################################################################################
  #  "First tier"  - max. impr. -711.23  meV, min. impr. -21.07 meV
       hydro 4 f 8.4
       hydro 3 d 2.8
       ionic 5 p auto
       hydro 5 g 12
       ionic 5 s auto
  #  "Second tier" - max. impr. -39.38  meV, min. impr. -2.68 meV
  #     hydro 4 f 12.4
  #     hydro 3 d 3.3
  #     hydro 6 h 17.2
  #     hydro 4 f 7.6
  #     hydro 3 p 3.0
  #     hydro 1 s 0.65
  #  "Third tier"  - max. impr. -5.50 meV, min. impr. -0.47 meV
  #     hydro 4 f 29.2
  #     hydro 5 g 11.2
  #     hydro 3 d 6.8
  #     hydro 6 h 14.8
  #     hydro 2 p 2.3
  #     hydro 4 s 3.8
  #  "Fourth tier"  - max. impr. -0.58 meV, min. impr. -0.19 meV
  #     hydro 5 f 6.8
  #     hydro 5 d 14.8
  #     hydro 6 s 7.8
  #     hydro 5 g 20.8
  #     hydro 5 d 10.4
  #     hydro 5 p 9.8
  #  Further functions - -0.17 meV and below
  #     hydro 5 d 3.2
  compute_forces .true.
  final_forces_cleaned .true.
  
  -----------------------------------------------------------------------
  Completed first pass over input file control.in .
  -----------------------------------------------------------------------
  
  
  -----------------------------------------------------------------------
  Parsing geometry.in (first pass over file, find array dimensions only).
  The contents of geometry.in will be repeated verbatim below
  unless switched off by setting 'verbatim_writeout .false.' .
  in the first line of geometry.in .
  -----------------------------------------------------------------------
  
  #
  # temporary structure-file for finite-difference calculation of forces
  # displacement  -0.0025 of \# atom     7 direction     2
  #
  atom    2.27134959    5.76124024    7.68191777   S
  atom    2.42460880    7.58564417    6.71883919   S
  atom    0.99745971    8.87604933    7.47886503   S
  atom   -0.65137537    8.87605174    6.22963354   S
  atom   -1.92527808    5.76124812    6.02658336   S
  atom   -0.80460670    4.47085777    7.19204068   S
  atom    1.15067215    4.47085480    6.51645977   S
  atom   -2.07853010    7.58565383    6.98716067   S
  
  -----------------------------------------------------------------------
  Completed first pass over input file geometry.in .
  -----------------------------------------------------------------------
  

  Basic array size parameters:
  | Number of species                 :        2
  | Number of atoms                   :        8
  | Max. basis fn. angular momentum   :        4
  | Max. atomic/ionic basis occupied n:        5
  | Max. number of basis fn. types    :        3
  | Max. radial fns per species/type  :       10
  | Max. logarithmic grid size        :     1436
  | Max. radial integration grid size :      119
  | Max. angular integration grid size:      434
  | Max. angular grid division number :        8
  | Radial grid for Hartree potential :     1436
  | Number of spin channels           :        1

------------------------------------------------------------
          Reading file control.in.
------------------------------------------------------------
  XC: Using PBE gradient-corrected functionals.
  Spin treatment: No spin polarisation.
  Charge =   0.000000E+00: Neutral system requested explicitly.
  Scalar relativistic treatment of kinetic energy: on-site free-atom approximation to ZORA.
  Using pulay charge density mixing.
  Pulay mixing - number of memorized iterations:   12
  Charge density mixing - mixing parameter:     0.1000
  Using libMBD for calculating MBD and TS energies
 
  Reading configuration options for species S                   .
  | Found nuclear charge :  16.0000
  | Found atomic mass :    32.0650000000000      amu
  | Found l_max for Hartree potential  :   6
  | Found cutoff potl. onset [A], width [A], scale factor :    4.00000    2.00000    1.00000
  | Threshold for basis-dependent cutoff potential is   0.100000E-03
  | Found data for basic radial integration grid :    44 points, outermost radius =    7.000 A
  | Found multiplier for basic radial grid :   2
  | Found angular grid specification: user-specified.
  | Specified grid contains     5 separate shells.
  | Check grid settings after all constraints further below.
  | Found free-atom valence shell :  3 s   2.000
  | Found free-atom valence shell :  3 p   4.000
  | Found free-ion valence shell :  3 s   1.000
  | Found free-ion valence shell :  3 p   3.000
  | Found ionic basis function :  3 d , default cutoff radius.
  | Found hydrogenic basis function :  2 p   1.800
  | Found hydrogenic basis function :  4 f   7.000
  | Found ionic basis function :  3 s , default cutoff radius.
  | Found hydrogenic basis function :  4 d   6.200
  | Found hydrogenic basis function :  5 g  10.800
  Species S                   : Missing cutoff potential type.
  Defaulting to exp(1/x)/(1-x)^2 type cutoff potential.
  Species S : No 'logarithmic' tag. Using default grid for free atom:
  | Default logarithmic grid data [bohr] : 0.1000E-03 0.1000E+03 0.1012E+01
  | Will include ionic basis functions of  2.0-fold positive S                    ion.
  Species S : On-site basis accuracy parameter (for Gram-Schmidt orthonormalisation) not specified.
  Using default value basis_acc =  0.1000000E-03.
  Species S                   : Using default innermost maximum threshold i_radial=  2 for radial functions.
  Species S                   : Default cutoff onset for free atom density etc. : 0.40000000E+01 AA.
  Species S                   : Basic radial grid will be enhanced according to radial_multiplier =   2, to contain    89 grid points.
 
  Reading configuration options for species Mo                  .
  | Found nuclear charge :  42.0000
  | Found atomic mass :    95.9400000000000      amu
  | Found l_max for Hartree potential  :   6
  | Found cutoff potl. onset [A], width [A], scale factor :    4.00000    2.00000    1.00000
  | Threshold for basis-dependent cutoff potential is   0.100000E-03
  | Found data for basic radial integration grid :    59 points, outermost radius =    7.000 A
  | Found multiplier for basic radial grid :   2
  | Found angular grid specification: user-specified.
  | Specified grid contains     6 separate shells.
  | Check grid settings after all constraints further below.
  | Found free-atom valence shell :  5 s   1.000
  | Found free-atom valence shell :  4 p   6.000
  | Found free-atom valence shell :  4 d   5.000
  | Found free-ion valence shell :  5 s   0.000
  | Found free-ion valence shell :  4 p   6.000
  | Found free-ion valence shell :  4 d   4.000
  | Found hydrogenic basis function :  4 f   8.400
  | Found hydrogenic basis function :  3 d   2.800
  | Found ionic basis function :  5 p , default cutoff radius.
  | Found hydrogenic basis function :  5 g  12.000
  | Found ionic basis function :  5 s , default cutoff radius.
  Species Mo                  : Missing cutoff potential type.
  Defaulting to exp(1/x)/(1-x)^2 type cutoff potential.
  Species Mo: No 'logarithmic' tag. Using default grid for free atom:
  | Default logarithmic grid data [bohr] : 0.1000E-03 0.1000E+03 0.1012E+01
  | Will include ionic basis functions of  2.0-fold positive Mo                   ion.
  Species Mo: On-site basis accuracy parameter (for Gram-Schmidt orthonormalisation) not specified.
  Using default value basis_acc =  0.1000000E-03.
  Species Mo                  : Using default innermost maximum threshold i_radial=  2 for radial functions.
  Species Mo                  : Default cutoff onset for free atom density etc. : 0.40000000E+01 AA.
  Species Mo                  : Basic radial grid will be enhanced according to radial_multiplier =   2, to contain   119 grid points.
  Forces will be computed.
  Cleaning forces before final output.
 
  Finished reading input file 'control.in'.
 
------------------------------------------------------------


------------------------------------------------------------
          Reading geometry description geometry.in.
------------------------------------------------------------
  | The smallest distance between any two atoms is         2.06752295 AA.
  | The first atom of this pair is atom number                      5 .
  | The second atom of this pair is atom number                     8 .
  Input structure read successfully.
  The structure contains        8 atoms,  and a total of        128.000 electrons.

  Input geometry:
  | No unit cell requested.
  | Atomic structure:
  |       Atom                x [A]            y [A]            z [A]
  |    1: Species S             2.27134959        5.76124024        7.68191777
  |    2: Species S             2.42460880        7.58564417        6.71883919
  |    3: Species S             0.99745971        8.87604933        7.47886503
  |    4: Species S            -0.65137537        8.87605174        6.22963354
  |    5: Species S            -1.92527808        5.76124812        6.02658336
  |    6: Species S            -0.80460670        4.47085777        7.19204068
  |    7: Species S             1.15067215        4.47085480        6.51645977
  |    8: Species S            -2.07853010        7.58565383        6.98716067

 
  Finished reading input file 'control.in'.
 

------------------------------------------------------------
          Reading geometry description geometry.in.
------------------------------------------------------------
 
  Consistency checks for stacksize environment parameter are next.
 
  | Maximum stacksize for task 0: unlimited
  | Maximum stacksize for task 1: unlimited
  | Maximum stacksize for task 2: unlimited
  | Maximum stacksize for task 3: unlimited
  | Maximum stacksize for task 4: unlimited
  | Maximum stacksize for task 5: unlimited
  | Maximum stacksize for task 6: unlimited
  | Maximum stacksize for task 7: unlimited
  | Maximum stacksize for task 8: unlimited
  | Maximum stacksize for task 9: unlimited
  | Maximum stacksize for task 10: unlimited
  | Maximum stacksize for task 11: unlimited
  | Maximum stacksize for task 12: unlimited
  | Maximum stacksize for task 13: unlimited
  | Maximum stacksize for task 14: unlimited
  | Maximum stacksize for task 15: unlimited
  | Maximum stacksize for task 16: unlimited
  | Maximum stacksize for task 17: unlimited
  | Maximum stacksize for task 18: unlimited
  | Maximum stacksize for task 19: unlimited
  | Maximum stacksize for task 20: unlimited
  | Maximum stacksize for task 21: unlimited
  | Maximum stacksize for task 22: unlimited
  | Maximum stacksize for task 23: unlimited
  | Maximum stacksize for task 24: unlimited
  | Maximum stacksize for task 25: unlimited
  | Maximum stacksize for task 26: unlimited
  | Maximum stacksize for task 27: unlimited
  | Maximum stacksize for task 28: unlimited
  | Maximum stacksize for task 29: unlimited
  | Maximum stacksize for task 30: unlimited
  | Maximum stacksize for task 31: unlimited
  | Maximum stacksize for task 32: unlimited
  | Maximum stacksize for task 33: unlimited
  | Maximum stacksize for task 34: unlimited
  | Maximum stacksize for task 35: unlimited
  | Maximum stacksize for task 36: unlimited
  | Maximum stacksize for task 37: unlimited
  | Maximum stacksize for task 38: unlimited
  | Maximum stacksize for task 39: unlimited
  | Current stacksize for task 0: unlimited
  | Current stacksize for task 1: unlimited
  | Current stacksize for task 2: unlimited
  | Current stacksize for task 3: unlimited
  | Current stacksize for task 4: unlimited
  | Current stacksize for task 5: unlimited
  | Current stacksize for task 6: unlimited
  | Current stacksize for task 7: unlimited
  | Current stacksize for task 8: unlimited
  | Current stacksize for task 9: unlimited
  | Current stacksize for task 10: unlimited
  | Current stacksize for task 11: unlimited
  | Current stacksize for task 12: unlimited
  | Current stacksize for task 13: unlimited
  | Current stacksize for task 14: unlimited
  | Current stacksize for task 15: unlimited
  | Current stacksize for task 16: unlimited
  | Current stacksize for task 17: unlimited
  | Current stacksize for task 18: unlimited
  | Current stacksize for task 19: unlimited
  | Current stacksize for task 20: unlimited
  | Current stacksize for task 21: unlimited
  | Current stacksize for task 22: unlimited
  | Current stacksize for task 23: unlimited
  | Current stacksize for task 24: unlimited
  | Current stacksize for task 25: unlimited
  | Current stacksize for task 26: unlimited
  | Current stacksize for task 27: unlimited
  | Current stacksize for task 28: unlimited
  | Current stacksize for task 29: unlimited
  | Current stacksize for task 30: unlimited
  | Current stacksize for task 31: unlimited
  | Current stacksize for task 32: unlimited
  | Current stacksize for task 33: unlimited
  | Current stacksize for task 34: unlimited
  | Current stacksize for task 35: unlimited
  | Current stacksize for task 36: unlimited
  | Current stacksize for task 37: unlimited
  | Current stacksize for task 38: unlimited
  | Current stacksize for task 39: unlimited
 
  Consistency checks for the contents of control.in are next.
 
  MPI_IN_PLACE appears to work with this MPI implementation.
  | Keeping use_mpi_in_place .true. (see manual).
  Target number of points in a grid batch is not set. Defaulting to  100
  Method for grid partitioning is not set. Defaulting to parallel hash+maxmin partitioning.
  Batch size limit is not set. Defaulting to    200
  By default, will store active basis functions for each batch.
  If in need of memory, prune_basis_once .false. can be used to disable this option.
  communication_type for Hartree potential was not specified.
  Defaulting to calc_hartree .
  Pulay mixer: Number of initial linear mixing iterations not set.
  Defaulting to    0 iterations.
  Work space size for distributed Hartree potential not set.
  Defaulting to   0.200000E+03 MB.
  Algorithm-dependent basis array size parameters:
  | n_max_pulay                         :       12
  Maximum number of self-consistency iterations not provided.
  Presetting  1000 iterations.
  Presetting      1001 iterations before the initial mixing cycle
  is restarted anyway using the sc_init_iter criterion / keyword.
  Presetting a factor      1.000 between actual scf density residual
  and density convergence criterion sc_accuracy_rho below which sc_init_iter
  takes no effect.
 * No s.c.f. convergence criteria (sc_accuracy_*) were provided in control.in.
 * The run will proceed with a reasonable default guess, but please check whether.
 * the s.c.f. cycles seem to take too much or too little time.
  Geometry relaxation not requested: no relaxation will be performed.
  Forces evaluation will include force correction term due to incomplete self-consistency (default).
 * Notice: The s.c.f. convergence criterion sc_accuracy_rho was not provided.
 * We used to stop in this case, and ask the user to provide reasonable
 * scf convergence criteria. However, this led some users to employ criteria
 * that led to extremely long run times, e.g., for simple relaxation.
 * We now preset a default value for sc_accuracy_rho if it is not set.
 * You may still wish to check if this setting is too tight or too loose for your needs.
 * Based on n_atoms and forces and force-correction status, FHI-aims chose sc_accuracy_rho =  0.923760E-05 .
  Force calculation: scf convergence accuracy of forces not set.
  Defaulting to 'sc_accuracy_forces not_checked'.
  Handling of forces: Unphysical translation and rotation will be removed from forces.
  No accuracy limit for integral partition fn. given. Defaulting to  0.1000E-14.
  No threshold value for u(r) in integrations given. Defaulting to  0.1000E-05.
  No occupation type (smearing scheme) given. Defaulting to Gaussian broadening, width =  0.1000E-01 eV.
  The width will be adjusted in iteration number     2 of the first full s.c.f. cycle only.
  S.C.F. convergence parameters will be adjusted in iteration number     2 of the first full s.c.f. cycle only.
  No accuracy for occupation numbers given. Defaulting to  0.1000E-12.
  No threshold value for occupation numbers given. Defaulting to  0.0000E+00.
  No accuracy for fermi level given. Defaulting to  0.1000E-19.
  Maximum # of iterations to find E_F not set. Defaulting to  200.
  Preferred method for the eigenvalue solver ('KS_method') not specified in 'control.in'.
  Calling BLACS routine to test compilation state
  Since ScaLAPACK support is enabled, defaulting to ELPA (via ELSI).
  Will not use alltoall communication since running on < 1024 CPUs.
  Threshold for basis singularities not set.
  Default threshold for basis singularities:  0.1000E-04
  partition_type (choice of integration weights) for integrals was not specified.
  | Using a version of the partition function of Stratmann and coworkers ('stratmann_sparse').
  | At each grid point, the set of atoms used to build the partition table is smoothly restricted to
  | only those atoms whose free-atom density would be non-zero at that grid point.
  Partitioning for Hartree potential was not defined. Using partition_type for integrals.
  | Adjusted default value of keyword multip_moments_threshold to:       0.10000000E-11
  | This value may affect high angular momentum components of the Hartree potential in periodic systems.
  No q(lm)/r^(l+1) cutoff set for long-range Hartree potential.
  | Using default value of  0.100000E-09 .
  | Verify using the multipole_threshold keyword.
  Defaulting to new monopole extrapolation.
  Density update method: automatic selection selected.
  Charge integration errors on the 3D integration grid will be compensated
  by explicit normalization and distribution of residual charges.
  Use the "compensate_multipole_errors" flag to change this behaviour.
  Set 'collect_eigenvectors' to be '.true.' for use_density_matrix .false.
 
  Consistency checks for the contents of geometry.in are next.
 
  Number of empty states per atom not set in control.in - providing a guess from actual geometry.
  | Total number of empty states used during s.c.f. cycle:       24
  If you use a very high smearing, use empty_states (per atom!) in control.in to increase this value.

  Structure-dependent array size parameters: 
  | Maximum number of distinct radial functions  :       26
  | Maximum number of basis functions            :      312
  | Number of Kohn-Sham states (occupied + empty):       88
------------------------------------------------------------

------------------------------------------------------------
          Preparing all fixed parts of the calculation.
------------------------------------------------------------
  Determining machine precision:
    2.225073858507201E-308
  Setting up grids for atomic and cluster calculations.

  Creating wave function, potential, and density for free atoms.

  Species: S

  List of occupied orbitals and eigenvalues:
    n    l              occ      energy [Ha]    energy [eV]
    1    0           2.0000       -88.680731     -2413.1255
    2    0           2.0000        -7.781719      -211.7513
    3    0           2.0000        -0.633662       -17.2428
    2    1           6.0000        -5.751976      -156.5192
    3    1           4.0000        -0.257086        -6.9957


  Species: Mo

  List of occupied orbitals and eigenvalues:
    n    l              occ      energy [Ha]    energy [eV]
    1    0           2.0000      -745.344654    -20281.8600
    2    0           2.0000      -103.288246     -2810.6162
    3    0           2.0000       -17.516687      -476.6533
    4    0           2.0000        -2.358559       -64.1796
    5    0           1.0000        -0.145159        -3.9500
    2    1           6.0000       -92.308627     -2511.8455
    3    1           6.0000       -13.936005      -379.2180
    4    1           6.0000        -1.408138       -38.3174
    3    2          10.0000        -8.119011      -220.9295
    4    2           5.0000        -0.132984        -3.6187


  Adding cutoff potential to free-atom effective potential.
  Creating fixed part of basis set: Ionic, confined, hydrogenic.
 
  S                    ion:

  List of free ionic orbitals and eigenvalues:
    n    l      energy [Ha]    energy [eV]
    1    0       -89.703778     -2440.9640
    2    0        -8.775428      -238.7916
    3    0        -1.470343       -40.0101
    2    1        -6.747660      -183.6132
    3    1        -1.048627       -28.5346


  List of ionic basis orbitals and eigenvalues:
    n    l      energy [Ha]    energy [eV]    outer radius [A]
    3    2        -0.495605       -13.4861       5.386362
    3    0        -1.470336       -40.0099       3.967934

 
  S                    hydrogenic:
 
  List of hydrogenic basis orbitals: 
    n    l      effective z      eigenvalue [eV]  inner max. [A]     outer max. [A]     outer radius [A]   
    2    1         1.800000       -11.0118           1.168531           1.168531           5.452614
    4    3         7.000000       -41.6672           1.212182           1.212182           5.066981
    4    2         6.200000       -32.6848           0.582121           1.814567           5.386362
    5    4        10.800000       -63.4785           1.227092           1.227092           4.766538
 
 
  Mo                   ion:

  List of free ionic orbitals and eigenvalues:
    n    l      energy [Ha]    energy [eV]
    1    0      -746.048685    -20301.0176
    2    0      -103.980912     -2829.4646
    3    0       -18.206601      -495.4268
    4    0        -3.040545       -82.7374
    2    1       -93.001013     -2530.6863
    3    1       -14.625827      -397.9890
    4    1        -2.084855       -56.7318
    3    2        -8.808854      -239.7011
    4    2        -0.765435       -20.8285


  List of ionic basis orbitals and eigenvalues:
    n    l      energy [Ha]    energy [eV]    outer radius [A]
    5    1        -0.465587       -12.6693       5.456393
    5    0        -0.650331       -17.6964       5.390095

 
  Mo                   hydrogenic:
 
  List of hydrogenic basis orbitals: 
    n    l      effective z      eigenvalue [eV]  inner max. [A]     outer max. [A]     outer radius [A]   
    4    3         8.400000       -60.0010           1.009788           1.009788           4.487018
    3    2         2.800000       -11.8048           1.687401           1.687401           5.456393
    5    4        12.000000       -78.3687           1.100005           1.100005           4.432498
 
  Creating atomic-like basis functions for current effective potential.

  Species S                   :

  List of atomic basis orbitals and eigenvalues:
    n    l      energy [Ha]    energy [eV]    outer radius [A]
    1    0       -88.680731     -2413.1255       0.682391
    2    0        -7.781719      -211.7513       2.289014
    3    0        -0.633662       -17.2428       5.256262
    2    1        -5.751976      -156.5192       2.555240
    3    1        -0.257086        -6.9957       5.386362


  Species Mo                  :

  List of atomic basis orbitals and eigenvalues:
    n    l      energy [Ha]    energy [eV]    outer radius [A]
    1    0      -745.344654    -20281.8600       0.247552
    2    0      -103.288246     -2810.6162       0.682864
    3    0       -17.516687      -476.6533       1.626637
    4    0        -2.358559       -64.1796       4.220963
    5    0        -0.145159        -3.9500       5.456393
    2    1       -92.308627     -2511.8455       0.699766
    3    1       -13.936005      -379.2180       1.793761
    4    1        -1.408138       -38.3174       4.828511
    3    2        -8.119011      -220.9295       2.181285
    4    2        -0.132984        -3.6187       5.390095

  Assembling full basis from fixed parts.
  | Species S :   atomic orbital   1 s accepted.
  | Species S :   atomic orbital   2 s accepted.
  | Species S :    ionic orbital   3 s accepted.
  | Species S :   atomic orbital   3 s accepted.
  | Species S :   atomic orbital   2 p accepted.
  | Species S :   atomic orbital   3 p accepted.
  | Species S :    hydro orbital   2 p accepted.
  | Species S :    ionic orbital   3 d accepted.
  | Species S :    hydro orbital   4 d accepted.
  | Species S :    hydro orbital   4 f accepted.
  | Species S :    hydro orbital   5 g accepted.
  | Species Mo :   atomic orbital   1 s accepted.
  | Species Mo :   atomic orbital   2 s accepted.
  | Species Mo :   atomic orbital   3 s accepted.
  | Species Mo :   atomic orbital   4 s accepted.
  | Species Mo :    ionic orbital   5 s accepted.
  | Species Mo :   atomic orbital   5 s accepted.
  | Species Mo :   atomic orbital   2 p accepted.
  | Species Mo :   atomic orbital   3 p accepted.
  | Species Mo :   atomic orbital   4 p accepted.
  | Species Mo :    ionic orbital   5 p accepted.
  | Species Mo :   atomic orbital   3 d accepted.
  | Species Mo :   atomic orbital   4 d accepted.
  | Species Mo :    hydro orbital   3 d accepted.
  | Species Mo :    hydro orbital   4 f accepted.
  | Species Mo :    hydro orbital   5 g accepted.
 
  Basis size parameters after reduction:
  | Total number of radial functions:       26
  | Total number of basis functions :      312
 
  Per-task memory consumption for arrays in subroutine allocate_ext:
  |           9.566776MB.
  Testing on-site integration grid accuracy.
  |  Species  Function  <phi|h_atom|phi> (log., in eV)  <phi|h_atom|phi> (rad., in eV)
           1        1              -2413.1254568977              -2413.1254096663
           1        2               -211.7513411281               -211.7513404762
           1        3                -16.9725280787                -16.9725279206
           1        4                  7.6024436204                  7.6024549059
           1        5               -156.5192206929               -156.5192205451
           1        6                 -6.9959757887                 -6.9959777655
           1        7                  6.8896462808                  6.8895564741
           1        8                  6.0214250550                  6.0214220200
           1        9                 19.6206468977                 19.6206494558
           1       10                 24.7008710786                 24.7008710738
           1       11                 47.5292252001                 47.5292260486
           2       12             -20281.8599610543             -20281.8584300616
           2       13              -2810.6161812280              -2810.6161551921
           2       14               -476.6533163555               -476.6533136395
           2       15                -64.1796433667                -64.1796426456
           2       16                 -3.3691762756                 -3.3691802887
           2       17                  4.4704608512                  4.4699102345
           2       18              -2511.8455406047              -2511.8455385741
           2       19               -379.2179896350               -379.2179882338
           2       20                -38.3173891619                -38.3173886619
           2       21                  0.2493245095                  0.2492931069
           2       22               -220.9295301098               -220.9295297081
           2       23                 -3.6195697699                 -3.6195754704
           2       24                  7.1428000922                  7.1426882355
           2       25                 23.3975871087                 23.3975871819
           2       26                 50.2449608881                 50.2449608586

  Preparing densities etc. for the partition functions (integrals / Hartree potential).
 Frequency grid relative error: 0.12418110983958286E-009                        
   
 Will use parallel mode: atoms     
 BLACS block size: 3                                                 

  Preparations completed.
  max(cpu_time)          :      0.447 s.
  Wall clock time (cpu1) :      0.447 s.
------------------------------------------------------------

------------------------------------------------------------
          Begin self-consistency loop: Initialization.

          Date     :  20210927, Time     :  125229.894
------------------------------------------------------------

  Initializing index lists of integration centers etc. from given atomic structure:
  | Number of centers in hartree potential         :         8
  | Number of centers in hartree multipole         :         8
  | Number of centers in electron density summation:         8
  | Number of centers in basis integrals           :         8
  | Number of centers in integrals                 :         8
  | Number of centers in hamiltonian               :         8
  * Using 40 tasks for Scalapack Eigenvalue solver.
  Detailed listing of tasks and assigned k-points:
  (for non-periodic systems, the "k-point" denotes an internal label only)
   Task     0 k-point     1 on co1603
   Task     1 k-point     1 on co1603
   Task     2 k-point     1 on co1603
   Task     3 k-point     1 on co1603
   Task     4 k-point     1 on co1603
   Task     5 k-point     1 on co1603
   Task     6 k-point     1 on co1603
   Task     7 k-point     1 on co1603
   Task     8 k-point     1 on co1603
   Task     9 k-point     1 on co1603
   Task    10 k-point     1 on co1603
   Task    11 k-point     1 on co1603
   Task    12 k-point     1 on co1603
   Task    13 k-point     1 on co1603
   Task    14 k-point     1 on co1603
   Task    15 k-point     1 on co1603
   Task    16 k-point     1 on co1603
   Task    17 k-point     1 on co1603
   Task    18 k-point     1 on co1603
   Task    19 k-point     1 on co1603
   Task    20 k-point     1 on co1603
   Task    21 k-point     1 on co1603
   Task    22 k-point     1 on co1603
   Task    23 k-point     1 on co1603
   Task    24 k-point     1 on co1603
   Task    25 k-point     1 on co1603
   Task    26 k-point     1 on co1603
   Task    27 k-point     1 on co1603
   Task    28 k-point     1 on co1603
   Task    29 k-point     1 on co1603
   Task    30 k-point     1 on co1603
   Task    31 k-point     1 on co1603
   Task    32 k-point     1 on co1603
   Task    33 k-point     1 on co1603
   Task    34 k-point     1 on co1603
   Task    35 k-point     1 on co1603
   Task    36 k-point     1 on co1603
   Task    37 k-point     1 on co1603
   Task    38 k-point     1 on co1603
   Task    39 k-point     1 on co1603
  Tasks:    40 split into      8 X      5 BLACS grid
  Calculating block size based on n_basis =          312  max_nprow =            8  max_npcol =            5
  ScaLAPACK block size set to:           16
  Allocating        0.023 MB for ovlp
  Allocating        0.023 MB for ham
  Allocating        0.023 MB for eigenvec
  Required Scalapack workspace - INTEGER:            1  REAL:             1
  Partitioning the integration grid into batches with parallel hashing+maxmin method.
  | Number of batches:     2319
  | Maximal batch size:     200
  | Minimal batch size:      22
  | Average batch size:      84.526
  | Standard deviation of batch sizes:      20.958

  Integration load balanced across    40 MPI tasks.
  Work distribution over tasks is as follows:
  Task     0 has       4933 integration points.
  Task     1 has       4861 integration points.
  Task     2 has       4932 integration points.
  Task     3 has       4962 integration points.
  Task     4 has       4834 integration points.
  Task     5 has       4848 integration points.
  Task     6 has       4925 integration points.
  Task     7 has       4936 integration points.
  Task     8 has       4927 integration points.
  Task     9 has       4940 integration points.
  Task    10 has       4921 integration points.
  Task    11 has       4934 integration points.
  Task    12 has       4828 integration points.
  Task    13 has       4936 integration points.
  Task    14 has       4884 integration points.
  Task    15 has       4928 integration points.
  Task    16 has       4921 integration points.
  Task    17 has       4924 integration points.
  Task    18 has       4840 integration points.
  Task    19 has       4930 integration points.
  Task    20 has       4874 integration points.
  Task    21 has       4874 integration points.
  Task    22 has       4926 integration points.
  Task    23 has       4858 integration points.
  Task    24 has       4944 integration points.
  Task    25 has       4965 integration points.
  Task    26 has       4880 integration points.
  Task    27 has       4843 integration points.
  Task    28 has       4939 integration points.
  Task    29 has       4959 integration points.
  Task    30 has       4830 integration points.
  Task    31 has       4927 integration points.
  Task    32 has       4879 integration points.
  Task    33 has       4858 integration points.
  Task    34 has       4905 integration points.
  Task    35 has       4967 integration points.
  Task    36 has       4841 integration points.
  Task    37 has       4847 integration points.
  Task    38 has       4826 integration points.
  Task    39 has       4930 integration points.
  Initializing partition tables, free-atom densities, potentials, etc. across the integration grid (initialize_grid_storage).
  | initialize_grid_storage: Actual outermost partition radius vs. multipole_radius_free
  | (-- VB: in principle, multipole_radius_free should be larger, hence this output)
  | Species        1: Confinement radius =              6.000000000000000 AA, multipole_radius_free =              6.012827091137924 AA.
  | Species        1: outer_partition_radius set to              6.012827091137924 AA .
  | Species        2: Confinement radius =              6.000000000000000 AA, multipole_radius_free =              6.016994434057369 AA.
  | Species        2: outer_partition_radius set to              6.016994434057369 AA .
  | The sparse table of interatomic distances needs          0.71 kbyte instead of         0.51 kbyte of memory.
  | Using the partition_type stratmann_smoother will reduce your memory usage.
  | Net number of integration points:   196016
  | of which are non-zero points    :   181160
  Renormalizing the initial density to the exact electron count on the 3D integration grid.
  | Initial density: Formal number of electrons (from input files) :     128.0000000000
  | Integrated number of electrons on 3D grid     :     127.9999791307
  | Charge integration error                      :      -0.0000208693
  | Normalization factor for density and gradient :       1.0000001630
  Renormalizing the free-atom superposition density to the exact electron count on the 3D integration grid.
  | Formal number of electrons (from input files) :     128.0000000000
  | Integrated number of electrons on 3D grid     :     127.9999791307
  | Charge integration error                      :      -0.0000208693
  | Normalization factor for density and gradient :       1.0000001630
  Obtaining max. number of non-zero basis functions in each batch (get_n_compute_maxes).
  | Maximal number of non-zero basis functions:      301 in task     0
  | Maximal number of non-zero basis functions:      299 in task     1
  | Maximal number of non-zero basis functions:      299 in task     2
  | Maximal number of non-zero basis functions:      298 in task     3
  | Maximal number of non-zero basis functions:      302 in task     4
  | Maximal number of non-zero basis functions:      300 in task     5
  | Maximal number of non-zero basis functions:      292 in task     6
  | Maximal number of non-zero basis functions:      295 in task     7
  | Maximal number of non-zero basis functions:      292 in task     8
  | Maximal number of non-zero basis functions:      299 in task     9
  | Maximal number of non-zero basis functions:      303 in task    10
  | Maximal number of non-zero basis functions:      292 in task    11
  | Maximal number of non-zero basis functions:      304 in task    12
  | Maximal number of non-zero basis functions:      298 in task    13
  | Maximal number of non-zero basis functions:      303 in task    14
  | Maximal number of non-zero basis functions:      298 in task    15
  | Maximal number of non-zero basis functions:      298 in task    16
  | Maximal number of non-zero basis functions:      294 in task    17
  | Maximal number of non-zero basis functions:      294 in task    18
  | Maximal number of non-zero basis functions:      296 in task    19
  | Maximal number of non-zero basis functions:      304 in task    20
  | Maximal number of non-zero basis functions:      298 in task    21
  | Maximal number of non-zero basis functions:      304 in task    22
  | Maximal number of non-zero basis functions:      304 in task    23
  | Maximal number of non-zero basis functions:      302 in task    24
  | Maximal number of non-zero basis functions:      297 in task    25
  | Maximal number of non-zero basis functions:      303 in task    26
  | Maximal number of non-zero basis functions:      299 in task    27
  | Maximal number of non-zero basis functions:      302 in task    28
  | Maximal number of non-zero basis functions:      295 in task    29
  | Maximal number of non-zero basis functions:      298 in task    30
  | Maximal number of non-zero basis functions:      302 in task    31
  | Maximal number of non-zero basis functions:      297 in task    32
  | Maximal number of non-zero basis functions:      292 in task    33
  | Maximal number of non-zero basis functions:      292 in task    34
  | Maximal number of non-zero basis functions:      304 in task    35
  | Maximal number of non-zero basis functions:      298 in task    36
  | Maximal number of non-zero basis functions:      297 in task    37
  | Maximal number of non-zero basis functions:      300 in task    38
  | Maximal number of non-zero basis functions:      302 in task    39
  Selecting the method for density update.
  Loop over occupied states selected for charge density update.
  Allocating        0.209 MB for KS_eigenvector
  Integrating Hamiltonian matrix: batch-based integration.
  Time summed over all CPUs for integration: real work        2.423 s, elapsed        2.541 s
  Integrating overlap matrix.
  Time summed over all CPUs for integration: real work        0.900 s, elapsed        0.951 s
  Deallocating overlap matrix.

  Updating Kohn-Sham eigenvalues and eigenvectors using ELSI and the ELPA eigensolver.
  Overlap matrix is not singular
  | Lowest and highest eigenvalues :  0.4509E-03,  0.4904E+01
  Finished singularity check of overlap matrix
  | Time :     0.014 s
  Starting ELPA eigensolver
  Finished Cholesky decomposition
  | Time :     0.004 s
  Finished transformation to standard eigenproblem
  | Time :     0.002 s
  Finished solving standard eigenproblem
  | Time :     0.009 s
  Finished back-transformation of eigenvectors
  | Time :     0.001 s

  Obtaining occupation numbers and chemical potential using ELSI.
  | Chemical potential (Fermi level):    -5.59105479 eV
  Writing Kohn-Sham eigenvalues.

  State    Occupation    Eigenvalue [Ha]    Eigenvalue [eV]
      1       2.00000         -88.694339        -2413.49577
      2       2.00000         -88.694319        -2413.49521
      3       2.00000         -88.694313        -2413.49505
      4       2.00000         -88.694291        -2413.49445
      5       2.00000         -88.694291        -2413.49445
      6       2.00000         -88.694291        -2413.49444
      7       2.00000         -88.694291        -2413.49444
      8       2.00000         -88.694290        -2413.49442
      9       2.00000          -7.797487         -212.18041
     10       2.00000          -7.797453         -212.17949
     11       2.00000          -7.797447         -212.17933
     12       2.00000          -7.797431         -212.17889
     13       2.00000          -7.797423         -212.17867
     14       2.00000          -7.797403         -212.17813
     15       2.00000          -7.797388         -212.17773
     16       2.00000          -7.797377         -212.17742
     17       2.00000          -5.768669         -156.97347
     18       2.00000          -5.768616         -156.97203
     19       2.00000          -5.768610         -156.97185
     20       2.00000          -5.768508         -156.96909
     21       2.00000          -5.768507         -156.96907
     22       2.00000          -5.768397         -156.96606
     23       2.00000          -5.768379         -156.96558
     24       2.00000          -5.768327         -156.96417
     25       2.00000          -5.767551         -156.94305
     26       2.00000          -5.767509         -156.94190
     27       2.00000          -5.767505         -156.94178
     28       2.00000          -5.767449         -156.94027
     29       2.00000          -5.767445         -156.94017
     30       2.00000          -5.767405         -156.93906
     31       2.00000          -5.767388         -156.93860
     32       2.00000          -5.767370         -156.93812
     33       2.00000          -5.766472         -156.91368
     34       2.00000          -5.766450         -156.91308
     35       2.00000          -5.766444         -156.91291
     36       2.00000          -5.766422         -156.91232
     37       2.00000          -5.766421         -156.91230
     38       2.00000          -5.766420         -156.91228
     39       2.00000          -5.766419         -156.91224
     40       2.00000          -5.766418         -156.91221
     41       2.00000          -0.821717          -22.36007
     42       2.00000          -0.792843          -21.57435
     43       2.00000          -0.792727          -21.57119
     44       2.00000          -0.716431          -19.49509
     45       2.00000          -0.716411          -19.49454
     46       2.00000          -0.612769          -16.67428
     47       2.00000          -0.612663          -16.67141
     48       2.00000          -0.542752          -14.76903
     49       2.00000          -0.450117          -12.24831
     50       2.00000          -0.425361          -11.57465
     51       2.00000          -0.425328          -11.57377
     52       2.00000          -0.393374          -10.70426
     53       2.00000          -0.368299          -10.02192
     54       2.00000          -0.368290          -10.02167
     55       2.00000          -0.361939           -9.84887
     56       2.00000          -0.361896           -9.84769
     57       2.00000          -0.329865           -8.97608
     58       2.00000          -0.277784           -7.55890
     59       2.00000          -0.277753           -7.55805
     60       2.00000          -0.270310           -7.35550
     61       2.00000          -0.270299           -7.35522
     62       2.00000          -0.262690           -7.14815
     63       2.00000          -0.262667           -7.14752
     64       2.00000          -0.257084           -6.99562
     65       0.00000          -0.132406           -3.60296
     66       0.00000          -0.132352           -3.60148
     67       0.00000          -0.119953           -3.26408
     68       0.00000          -0.085822           -2.33532
     69       0.00000          -0.084762           -2.30649
     70       0.00000          -0.084676           -2.30416
     71       0.00000          -0.082604           -2.24776
     72       0.00000          -0.082589           -2.24736
     73       0.00000           0.028120            0.76518
     74       0.00000           0.049387            1.34388
     75       0.00000           0.049393            1.34406
     76       0.00000           0.064344            1.75088
     77       0.00000           0.064346            1.75093
     78       0.00000           0.079613            2.16637
     79       0.00000           0.079650            2.16738
     80       0.00000           0.091219            2.48220
     81       0.00000           0.093571            2.54620
     82       0.00000           0.093630            2.54779
     83       0.00000           0.115033            3.13022
     84       0.00000           0.117524            3.19798
     85       0.00000           0.117583            3.19960
     86       0.00000           0.123017            3.34747
     87       0.00000           0.123026            3.34770
     88       0.00000           0.141548            3.85171

  Highest occupied state (VBM) at     -6.99562479 eV
  | Occupation number:      2.00000000

  Lowest unoccupied state (CBM) at    -3.60296365 eV
  | Occupation number:      0.00000000

  Overall HOMO-LUMO gap:      3.39266114 eV.
  Calculating total energy contributions from superposition of free atom densities.

  Total energy components:
  | Sum of eigenvalues            :       -1842.64859724 Ha      -50141.01947784 eV
  | XC energy correction          :        -204.90006053 Ha       -5575.61433116 eV
  | XC potential correction       :         264.82447548 Ha        7206.24062733 eV
  | Free-atom electrostatic energy:       -1415.63216437 Ha      -38521.31113512 eV
  | Hartree energy correction     :           0.00000000 Ha           0.00000000 eV
  | vdW energy correction         :           0.00000000 Ha           0.00000000 eV
  | Entropy correction            :           0.00000000 Ha           0.00000000 eV
  | ---------------------------
  | Total energy                  :       -3198.35634665 Ha      -87031.70431679 eV
  | Total energy, T -> 0          :       -3198.35634665 Ha      -87031.70431679 eV  <-- do not rely on this value for anything but (periodic) metals
  | Electronic free energy        :       -3198.35634665 Ha      -87031.70431679 eV

  Derived energy quantities:
  | Kinetic energy                :        3210.60041800 Ha       87364.88245002 eV
  | Electrostatic energy          :       -6204.05670412 Ha     -168820.97243565 eV
  | Energy correction for multipole
  | error in Hartree potential    :           0.00000000 Ha           0.00000000 eV
  | Sum of eigenvalues per atom                           :       -6267.62743473 eV
  | Total energy (T->0) per atom                          :      -10878.96303960 eV  <-- do not rely on this value for anything but (periodic) metals
  | Electronic free energy per atom                       :      -10878.96303960 eV
  Initialize hartree_potential_storage
  Max. number of atoms included in rho_multipole:            8

  End scf initialization - timings             :  max(cpu_time)    wall_clock(cpu1)
  | Time for scf. initialization               :        0.241 s           0.244 s
  | Boundary condition initialization          :        0.000 s           0.000 s
  | Integration                                :        0.091 s           0.092 s
  | Solution of K.-S. eqns.                    :        0.033 s           0.034 s
  | Grid partitioning                          :        0.089 s           0.089 s
  | Preloading free-atom quantities on grid    :        0.020 s           0.018 s
  | Free-atom superposition energy             :        0.005 s           0.006 s
  | Total energy evaluation                    :        0.000 s           0.000 s

  Partial memory accounting:
  | Current value for overall tracked memory usage:
  |   Minimum:        0.624 MB (on task 24)
  |   Maximum:        0.653 MB (on task  0)
  |   Average:        0.639 MB
  | Peak value for overall tracked memory usage:
  |   Minimum:        2.990 MB (on task 34 after allocating wave)
  |   Maximum:        3.129 MB (on task 12 after allocating wave)
  |   Average:        3.066 MB
  | Largest tracked array allocation so far:
  |   Minimum:        0.651 MB (hamiltonian_shell on task  6)
  |   Maximum:        0.916 MB (all_coords on task 21)
  |   Average:        0.705 MB
  Note:  These values currently only include a subset of arrays which are explicitly tracked.
  The "true" memory usage will be greater.
------------------------------------------------------------
  Evaluating new KS density.
  Integration grid: deviation in total charge (<rho> - N_e) =   5.684342E-14

  Time for density update prior                :  max(cpu_time)    wall_clock(cpu1)
  | self-consistency iterative process         :        0.052 s           0.052 s

------------------------------------------------------------
          Begin self-consistency iteration #    1

  Date     :  20210927, Time     :  125230.191
------------------------------------------------------------
  Pulay mixing of updated and previous charge densities.
  Renormalizing the density to the exact electron count on the 3D integration grid.
  | Formal number of electrons (from input files) :     128.0000000000
  | Integrated number of electrons on 3D grid     :     128.0000000000
  | Charge integration error                      :      -0.0000000000
  | Normalization factor for density and gradient :       1.0000000000

  Evaluating partitioned Hartree potential by multipole expansion.
  | Original multipole sum: apparent total charge =  -0.913866E-13
  | Sum of charges compensated after spline to logarithmic grids =   0.192124E-06
  | Analytical far-field extrapolation by fixed multipoles:
  | Hartree multipole sum: apparent total charge =  -0.914055E-13
  Summing up the Hartree potential.
  Time summed over all CPUs for potential: real work        0.851 s, elapsed        0.915 s
  | RMS charge density error from multipole expansion :   0.577594E-03

  Integrating Hamiltonian matrix: batch-based integration.
  Time summed over all CPUs for integration: real work        2.386 s, elapsed        2.517 s

  Updating Kohn-Sham eigenvalues and eigenvectors using ELSI and the ELPA eigensolver.
  Starting ELPA eigensolver
  Finished transformation to standard eigenproblem
  | Time :     0.002 s
  Finished solving standard eigenproblem
  | Time :     0.008 s
  Finished back-transformation of eigenvectors
  | Time :     0.001 s

  Obtaining occupation numbers and chemical potential using ELSI.
  | Chemical potential (Fermi level):    -5.53632345 eV
  Writing Kohn-Sham eigenvalues.

  State    Occupation    Eigenvalue [Ha]    Eigenvalue [eV]
      1       2.00000         -88.690646        -2413.39526
      2       2.00000         -88.690628        -2413.39479
      3       2.00000         -88.690623        -2413.39465
      4       2.00000         -88.690622        -2413.39462
      5       2.00000         -88.690622        -2413.39461
      6       2.00000         -88.690620        -2413.39457
      7       2.00000         -88.690617        -2413.39447
      8       2.00000         -88.690613        -2413.39438
      9       2.00000          -7.793994         -212.08537
     10       2.00000          -7.793972         -212.08478
     11       2.00000          -7.793967         -212.08464
     12       2.00000          -7.793947         -212.08408
     13       2.00000          -7.793943         -212.08398
     14       2.00000          -7.793921         -212.08339
     15       2.00000          -7.793910         -212.08309
     16       2.00000          -7.793902         -212.08286
     17       2.00000          -5.765571         -156.88916
     18       2.00000          -5.765529         -156.88801
     19       2.00000          -5.765517         -156.88771
     20       2.00000          -5.765414         -156.88491
     21       2.00000          -5.765413         -156.88487
     22       2.00000          -5.765300         -156.88181
     23       2.00000          -5.765288         -156.88146
     24       2.00000          -5.765240         -156.88015
     25       2.00000          -5.764169         -156.85103
     26       2.00000          -5.764141         -156.85025
     27       2.00000          -5.764131         -156.84999
     28       2.00000          -5.764075         -156.84846
     29       2.00000          -5.764073         -156.84839
     30       2.00000          -5.764026         -156.84713
     31       2.00000          -5.764015         -156.84683
     32       2.00000          -5.763999         -156.84639
     33       2.00000          -5.762393         -156.80269
     34       2.00000          -5.762374         -156.80217
     35       2.00000          -5.762365         -156.80194
     36       2.00000          -5.762364         -156.80189
     37       2.00000          -5.762362         -156.80186
     38       2.00000          -5.762362         -156.80184
     39       2.00000          -5.762358         -156.80173
     40       2.00000          -5.762355         -156.80165
     41       2.00000          -0.819216          -22.29199
     42       2.00000          -0.790314          -21.50555
     43       2.00000          -0.790201          -21.50246
     44       2.00000          -0.713840          -19.42457
     45       2.00000          -0.713820          -19.42402
     46       2.00000          -0.610055          -16.60045
     47       2.00000          -0.609950          -16.59759
     48       2.00000          -0.539819          -14.68923
     49       2.00000          -0.447837          -12.18628
     50       2.00000          -0.422878          -11.50709
     51       2.00000          -0.422845          -11.50621
     52       2.00000          -0.390971          -10.63885
     53       2.00000          -0.365781           -9.95340
     54       2.00000          -0.365771           -9.95314
     55       2.00000          -0.359537           -9.78350
     56       2.00000          -0.359495           -9.78237
     57       2.00000          -0.327127           -8.90157
     58       2.00000          -0.274982           -7.48263
     59       2.00000          -0.274950           -7.48176
     60       2.00000          -0.267614           -7.28215
     61       2.00000          -0.267603           -7.28185
     62       2.00000          -0.259847           -7.07079
     63       2.00000          -0.259823           -7.07015
     64       2.00000          -0.254295           -6.91972
     65       0.00000          -0.130170           -3.54210
     66       0.00000          -0.130115           -3.54061
     67       0.00000          -0.117610           -3.20034
     68       0.00000          -0.083649           -2.27621
     69       0.00000          -0.082574           -2.24694
     70       0.00000          -0.082486           -2.24454
     71       0.00000          -0.080175           -2.18167
     72       0.00000          -0.080160           -2.18126
     73       0.00000           0.030113            0.81941
     74       0.00000           0.051376            1.39800
     75       0.00000           0.051382            1.39818
     76       0.00000           0.066157            1.80021
     77       0.00000           0.066159            1.80027
     78       0.00000           0.081132            2.20771
     79       0.00000           0.081168            2.20869
     80       0.00000           0.092753            2.52393
     81       0.00000           0.095326            2.59395
     82       0.00000           0.095598            2.60136
     83       0.00000           0.117050            3.18510
     84       0.00000           0.119483            3.25129
     85       0.00000           0.119542            3.25291
     86       0.00000           0.124887            3.39835
     87       0.00000           0.124896            3.39859
     88       0.00000           0.143552            3.90626

  Highest occupied state (VBM) at     -6.91972146 eV
  | Occupation number:      2.00000000

  Lowest unoccupied state (CBM) at    -3.54210323 eV
  | Occupation number:      0.00000000

  Overall HOMO-LUMO gap:      3.37761822 eV.

  Total energy components:
  | Sum of eigenvalues            :       -1842.23990225 Ha      -50129.89832137 eV
  | XC energy correction          :        -204.92407673 Ha       -5576.26784514 eV
  | XC potential correction       :         264.85539075 Ha        7207.08187450 eV
  | Free-atom electrostatic energy:       -1415.63216437 Ha      -38521.31113512 eV
  | Hartree energy correction     :          -0.41244210 Ha         -11.22312056 eV
  | vdW energy correction         :           0.00000000 Ha           0.00000000 eV
  | Entropy correction            :           0.00000000 Ha           0.00000000 eV
  | ---------------------------
  | Total energy                  :       -3198.35319470 Ha      -87031.61854769 eV
  | Total energy, T -> 0          :       -3198.35319470 Ha      -87031.61854769 eV  <-- do not rely on this value for anything but (periodic) metals
  | Electronic free energy        :       -3198.35319470 Ha      -87031.61854769 eV

  Derived energy quantities:
  | Kinetic energy                :        3210.66973655 Ha       87366.76870367 eV
  | Electrostatic energy          :       -6204.09885452 Ha     -168822.11940622 eV
  | Energy correction for multipole
  | error in Hartree potential    :          -0.00027256 Ha          -0.00741674 eV
  | Sum of eigenvalues per atom                           :       -6266.23729017 eV
  | Total energy (T->0) per atom                          :      -10878.95231846 eV  <-- do not rely on this value for anything but (periodic) metals
  | Electronic free energy per atom                       :      -10878.95231846 eV
  Evaluating new KS density.
  Integration grid: deviation in total charge (<rho> - N_e) =   2.842171E-14

  Self-consistency convergence accuracy:
  | Change of charge density      :  0.2418E+00
  | Change of sum of eigenvalues  :  0.1112E+02 eV
  | Change of total energy        :  0.8577E-01 eV


------------------------------------------------------------
  End self-consistency iteration #     1       :  max(cpu_time)    wall_clock(cpu1)
  | Time for this iteration                    :        0.155 s           0.156 s
  | Charge density update                      :        0.049 s           0.048 s
  | Density mixing                             :        0.001 s           0.001 s
  | Hartree multipole update                   :        0.004 s           0.004 s
  | Hartree multipole summation                :        0.024 s           0.024 s
  | Integration                                :        0.065 s           0.065 s
  | Solution of K.-S. eqns.                    :        0.012 s           0.012 s
  | Total energy evaluation                    :        0.001 s           0.000 s

  Partial memory accounting:
  | Current value for overall tracked memory usage:
  |   Minimum:        0.624 MB (on task 24)
  |   Maximum:        0.653 MB (on task  0)
  |   Average:        0.639 MB
  | Peak value for overall tracked memory usage:
  |   Minimum:        2.990 MB (on task 34 after allocating wave)
  |   Maximum:        3.129 MB (on task 12 after allocating wave)
  |   Average:        3.066 MB
  | Largest tracked array allocation so far:
  |   Minimum:        1.337 MB (gradient_basis_wave on task  6)
  |   Maximum:        1.392 MB (gradient_basis_wave on task 12)
  |   Average:        1.367 MB
  Note:  These values currently only include a subset of arrays which are explicitly tracked.
  The "true" memory usage will be greater.
------------------------------------------------------------

------------------------------------------------------------
          Begin self-consistency iteration #    2

  Date     :  20210927, Time     :  125230.347
------------------------------------------------------------
  Pulay mixing of updated and previous charge densities.
  Renormalizing the density to the exact electron count on the 3D integration grid.
  | Formal number of electrons (from input files) :     128.0000000000
  | Integrated number of electrons on 3D grid     :     128.0000000000
  | Charge integration error                      :       0.0000000000
  | Normalization factor for density and gradient :       1.0000000000

  Evaluating partitioned Hartree potential by multipole expansion.
  | Original multipole sum: apparent total charge =   0.312330E-13
  | Sum of charges compensated after spline to logarithmic grids =   0.105785E-05
  | Analytical far-field extrapolation by fixed multipoles:
  | Hartree multipole sum: apparent total charge =   0.313573E-13
  Summing up the Hartree potential.
  Time summed over all CPUs for potential: real work        0.826 s, elapsed        0.860 s
  | RMS charge density error from multipole expansion :   0.514970E-02

  Integrating Hamiltonian matrix: batch-based integration.
  Time summed over all CPUs for integration: real work        2.360 s, elapsed        2.477 s

  Updating Kohn-Sham eigenvalues and eigenvectors using ELSI and the ELPA eigensolver.
  Starting ELPA eigensolver
  Finished transformation to standard eigenproblem
  | Time :     0.001 s
  Finished solving standard eigenproblem
  | Time :     0.008 s
  Finished back-transformation of eigenvectors
  | Time :     0.001 s

  Obtaining occupation numbers and chemical potential using ELSI.
  | Chemical potential (Fermi level):    -5.12136572 eV
  Highest occupied state (VBM) at     -6.34254307 eV
  | Occupation number:      2.00000000

  Lowest unoccupied state (CBM) at    -3.08169462 eV
  | Occupation number:      0.00000000

  Overall HOMO-LUMO gap:      3.26084845 eV.

  Checking to see if s.c.f. parameters should be adjusted.
  Kept the default occupation width. Value:   0.010000 eV.

  Total energy components:
  | Sum of eigenvalues            :       -1839.25520518 Ha      -50048.68058173 eV
  | XC energy correction          :        -205.12498443 Ha       -5581.73482196 eV
  | XC potential correction       :         265.11259522 Ha        7214.08076432 eV
  | Free-atom electrostatic energy:       -1415.63216437 Ha      -38521.31113512 eV
  | Hartree energy correction     :          -3.44394100 Ha         -93.71440285 eV
  | vdW energy correction         :           0.00000000 Ha           0.00000000 eV
  | Entropy correction            :           0.00000000 Ha           0.00000000 eV
  | ---------------------------
  | Total energy                  :       -3198.34369976 Ha      -87031.36017733 eV
  | Total energy, T -> 0          :       -3198.34369976 Ha      -87031.36017733 eV  <-- do not rely on this value for anything but (periodic) metals
  | Electronic free energy        :       -3198.34369976 Ha      -87031.36017733 eV

  Derived energy quantities:
  | Kinetic energy                :        3211.03544064 Ha       87376.72001833 eV
  | Electrostatic energy          :       -6204.25415597 Ha     -168826.34537371 eV
  | Energy correction for multipole
  | error in Hartree potential    :          -0.00256187 Ha          -0.06971206 eV
  | Sum of eigenvalues per atom                           :       -6256.08507272 eV
  | Total energy (T->0) per atom                          :      -10878.92002217 eV  <-- do not rely on this value for anything but (periodic) metals
  | Electronic free energy per atom                       :      -10878.92002217 eV
  Evaluating new KS density.
  Integration grid: deviation in total charge (<rho> - N_e) =  -4.263256E-14

  Self-consistency convergence accuracy:
  | Change of charge density      :  0.2149E+00
  | Change of sum of eigenvalues  :  0.8122E+02 eV
  | Change of total energy        :  0.2584E+00 eV


------------------------------------------------------------
  End self-consistency iteration #     2       :  max(cpu_time)    wall_clock(cpu1)
  | Time for this iteration                    :        0.149 s           0.149 s
  | Charge density update                      :        0.048 s           0.049 s
  | Density mixing                             :        0.001 s           0.001 s
  | Hartree multipole update                   :        0.003 s           0.002 s
  | Hartree multipole summation                :        0.022 s           0.022 s
  | Integration                                :        0.063 s           0.064 s
  | Solution of K.-S. eqns.                    :        0.011 s           0.011 s
  | Total energy evaluation                    :        0.000 s           0.000 s

  Partial memory accounting:
  | Current value for overall tracked memory usage:
  |   Minimum:        0.625 MB (on task 24)
  |   Maximum:        0.654 MB (on task  0)
  |   Average:        0.640 MB
  | Peak value for overall tracked memory usage:
  |   Minimum:        2.990 MB (on task 34 after allocating wave)
  |   Maximum:        3.129 MB (on task 12 after allocating wave)
  |   Average:        3.066 MB
  | Largest tracked array allocation so far:
  |   Minimum:        1.337 MB (gradient_basis_wave on task  6)
  |   Maximum:        1.392 MB (gradient_basis_wave on task 12)
  |   Average:        1.367 MB
  Note:  These values currently only include a subset of arrays which are explicitly tracked.
  The "true" memory usage will be greater.
------------------------------------------------------------

------------------------------------------------------------
          Begin self-consistency iteration #    3

  Date     :  20210927, Time     :  125230.497
------------------------------------------------------------
  Pulay mixing of updated and previous charge densities.
  Renormalizing the density to the exact electron count on the 3D integration grid.
  | Formal number of electrons (from input files) :     128.0000000000
  | Integrated number of electrons on 3D grid     :     128.0000000000
  | Charge integration error                      :       0.0000000000
  | Normalization factor for density and gradient :       1.0000000000

  Evaluating partitioned Hartree potential by multipole expansion.
  | Original multipole sum: apparent total charge =   0.133829E-13
  | Sum of charges compensated after spline to logarithmic grids =   0.951335E-06
  | Analytical far-field extrapolation by fixed multipoles:
  | Hartree multipole sum: apparent total charge =   0.132843E-13
  Summing up the Hartree potential.
  Time summed over all CPUs for potential: real work        0.830 s, elapsed        0.867 s
  | RMS charge density error from multipole expansion :   0.552066E-02

  Integrating Hamiltonian matrix: batch-based integration.
  Time summed over all CPUs for integration: real work        2.362 s, elapsed        2.485 s

  Updating Kohn-Sham eigenvalues and eigenvectors using ELSI and the ELPA eigensolver.
  Starting ELPA eigensolver
  Finished transformation to standard eigenproblem
  | Time :     0.001 s
  Finished solving standard eigenproblem
  | Time :     0.008 s
  Finished back-transformation of eigenvectors
  | Time :     0.001 s

  Obtaining occupation numbers and chemical potential using ELSI.
  | Chemical potential (Fermi level):    -5.22206541 eV
  Highest occupied state (VBM) at     -6.47726594 eV
  | Occupation number:      2.00000000

  Lowest unoccupied state (CBM) at    -3.21001747 eV
  | Occupation number:      0.00000000

  Overall HOMO-LUMO gap:      3.26724846 eV.

  Total energy components:
  | Sum of eigenvalues            :       -1840.52964004 Ha      -50083.35971868 eV
  | XC energy correction          :        -205.05059096 Ha       -5579.71047244 eV
  | XC potential correction       :         265.01448106 Ha        7211.41094218 eV
  | Free-atom electrostatic energy:       -1415.63216437 Ha      -38521.31113512 eV
  | Hartree energy correction     :          -2.14530882 Ha         -58.37682320 eV
  | vdW energy correction         :           0.00000000 Ha           0.00000000 eV
  | Entropy correction            :           0.00000000 Ha           0.00000000 eV
  | ---------------------------
  | Total energy                  :       -3198.34322312 Ha      -87031.34720726 eV
  | Total energy, T -> 0          :       -3198.34322312 Ha      -87031.34720726 eV  <-- do not rely on this value for anything but (periodic) metals
  | Electronic free energy        :       -3198.34322312 Ha      -87031.34720726 eV

  Derived energy quantities:
  | Kinetic energy                :        3210.19432067 Ha       87353.83197934 eV
  | Electrostatic energy          :       -6203.48695283 Ha     -168805.46871416 eV
  | Energy correction for multipole
  | error in Hartree potential    :          -0.00312483 Ha          -0.08503103 eV
  | Sum of eigenvalues per atom                           :       -6260.41996483 eV
  | Total energy (T->0) per atom                          :      -10878.91840091 eV  <-- do not rely on this value for anything but (periodic) metals
  | Electronic free energy per atom                       :      -10878.91840091 eV
  Evaluating new KS density.
  Integration grid: deviation in total charge (<rho> - N_e) =   2.842171E-14

  Self-consistency convergence accuracy:
  | Change of charge density      :  0.2698E-01
  | Change of sum of eigenvalues  : -0.3468E+02 eV
  | Change of total energy        :  0.1297E-01 eV


------------------------------------------------------------
  End self-consistency iteration #     3       :  max(cpu_time)    wall_clock(cpu1)
[...]
     56       2.00000          -0.345228           -9.39414
     57       2.00000          -0.310400           -8.44642
     58       2.00000          -0.258178           -7.02537
     59       2.00000          -0.258146           -7.02451
     60       2.00000          -0.251395           -6.84081
     61       2.00000          -0.251383           -6.84049
     62       2.00000          -0.242588           -6.60116
     63       2.00000          -0.242568           -6.60061
     64       2.00000          -0.237463           -6.46170
     65       0.00000          -0.117200           -3.18916
     66       0.00000          -0.117144           -3.18764
     67       0.00000          -0.103866           -2.82634
     68       0.00000          -0.071272           -1.93940
     69       0.00000          -0.069736           -1.89761
     70       0.00000          -0.069643           -1.89508
     71       0.00000          -0.065868           -1.79236
     72       0.00000          -0.065852           -1.79192
     73       0.00000           0.042685            1.16151
     74       0.00000           0.063506            1.72808
     75       0.00000           0.063512            1.72824
     76       0.00000           0.077412            2.10648
     77       0.00000           0.077417            2.10663
     78       0.00000           0.090262            2.45616
     79       0.00000           0.090296            2.45708
     80       0.00000           0.101964            2.77458
     81       0.00000           0.105951            2.88307
     82       0.00000           0.108103            2.94163
     83       0.00000           0.129644            3.52780
     84       0.00000           0.131349            3.57418
     85       0.00000           0.131408            3.57580
     86       0.00000           0.136334            3.70984
     87       0.00000           0.136343            3.71009
     88       0.00000           0.155553            4.23282

  Highest occupied state (VBM) at     -6.46170030 eV
  | Occupation number:      2.00000000

  Lowest unoccupied state (CBM) at    -3.18916389 eV
  | Occupation number:      0.00000000

  Overall HOMO-LUMO gap:      3.27253641 eV.
  | Chemical Potential                          :    -5.20973570 eV

  Self-consistency cycle converged.


------------------------------------------------------------
  End self-consistency iteration #    12       :  max(cpu_time)    wall_clock(cpu1)
  | Time for this iteration                    :        0.442 s           0.442 s
  | Charge density & force component update    :        0.241 s           0.242 s
  | Density mixing                             :        0.003 s           0.003 s
  | Hartree multipole update                   :        0.002 s           0.002 s
  | Hartree multipole summation                :        0.071 s           0.071 s
  | Hartree pot. SCF incomplete forces         :        0.049 s           0.049 s
  | Integration                                :        0.064 s           0.063 s
  | Solution of K.-S. eqns.                    :        0.010 s           0.010 s
  | Total energy evaluation                    :        0.000 s           0.000 s

  Partial memory accounting:
  | Current value for overall tracked memory usage:
  |   Minimum:        0.628 MB (on task 24)
  |   Maximum:        0.658 MB (on task  0)
  |   Average:        0.643 MB
  | Peak value for overall tracked memory usage:
  |   Minimum:        5.560 MB (on task 34 after allocating hessian_basis_wave)
  |   Maximum:        5.772 MB (on task 12 after allocating hessian_basis_wave)
  |   Average:        5.676 MB
  | Largest tracked array allocation so far:
  |   Minimum:        2.673 MB (hessian_basis_wave on task  6)
  |   Maximum:        2.783 MB (hessian_basis_wave on task 12)
  |   Average:        2.734 MB
  Note:  These values currently only include a subset of arrays which are explicitly tracked.
  The "true" memory usage will be greater.
------------------------------------------------------------
  Obtaining max. number of non-zero basis functions in each batch .
  Evaluating KS electron density on previously omitted grid points.

  Entering Libmbd.
  Libmbd: VdW method: mbd-nl
  Libmbd: Evaluating kinetic energy density...

  Evaluating density matrix
  Finished density matrix calculation
  | Time :     0.001 s

  Libmbd: Performing Hirshfeld analysis...
  Libmbd: Calculating MBD energy...
  Libmbd: Evaluated energy: -0.10399968429515738E-001

  Leaving Libmbd.


  Total energy components:
  | Sum of eigenvalues            :       -1840.39882126 Ha      -50079.79995858 eV
  | XC energy correction          :        -205.05917581 Ha       -5579.94407825 eV
  | XC potential correction       :         265.02559442 Ha        7211.71335220 eV
  | Free-atom electrostatic energy:       -1415.63216437 Ha      -38521.31113512 eV
  | Hartree energy correction     :          -2.27863865 Ha         -62.00491242 eV
  | vdW energy correction         :          -0.01039997 Ha          -0.28299754 eV
  | Entropy correction            :           0.00000000 Ha           0.00000000 eV
  | ---------------------------
  | Total energy                  :       -3198.35360563 Ha      -87031.62972971 eV
  | Total energy, T -> 0          :       -3198.35360563 Ha      -87031.62972971 eV  <-- do not rely on this value for anything but (periodic) metals
  | Electronic free energy        :       -3198.35360563 Ha      -87031.62972971 eV

  Derived energy quantities:
  | Kinetic energy                :        3210.28042079 Ha       87356.17488290 eV
  | Electrostatic energy          :       -6203.56445064 Ha     -168807.57753682 eV
  | Energy correction for multipole
  | error in Hartree potential    :          -0.00320759 Ha          -0.08728291 eV
  | Sum of eigenvalues per atom                           :       -6259.97499482 eV
  | Total energy (T->0) per atom                          :      -10878.95371621 eV  <-- do not rely on this value for anything but (periodic) metals
  | Electronic free energy per atom                       :      -10878.95371621 eV

  atomic forces [eV/Ang]:
  -----------------------
  atom #    1
   Hellmann-Feynman              :  0.155534E+02 -0.822075E+01  0.286232E+02
   Ionic forces                  :  0.000000E+00  0.000000E+00  0.000000E+00
   Multipole                     :  0.400724E-01 -0.128038E-01 -0.569356E-01
   Hartree pot. SCF incomplete   : -0.636441E-04  0.308495E-04 -0.131232E-03
   Pulay + GGA                   : -0.155765E+02  0.822655E+01 -0.285626E+02
   Van der Waals                 : -0.172134E-01  0.726928E-02 -0.345875E-02
   ----------------------------------------------------------------
   Total forces(   1)            : -0.342252E-03  0.301574E-03  0.447719E-04
  atom #    2
   Hellmann-Feynman              :  0.236712E+02  0.822079E+01 -0.223814E+02
   Ionic forces                  :  0.000000E+00  0.000000E+00  0.000000E+00
   Multipole                     :  0.205292E-01  0.128210E-01  0.665792E-01
   Hartree pot. SCF incomplete   : -0.105504E-03 -0.207151E-04  0.135228E-03
   Pulay + GGA                   : -0.236745E+02 -0.822601E+01  0.223167E+02
   Van der Waals                 : -0.174397E-01 -0.726504E-02 -0.206286E-02
   ----------------------------------------------------------------
   Total forces(   2)            : -0.348664E-03  0.318091E-03 -0.532871E-04
  atom #    3
   Hellmann-Feynman              :  0.406993E+01  0.198627E+02  0.267890E+02
   Ionic forces                  :  0.000000E+00  0.000000E+00  0.000000E+00
   Multipole                     :  0.223789E-01  0.305922E-01 -0.598035E-01
   Hartree pot. SCF incomplete   : -0.623047E-05 -0.758358E-04 -0.116992E-03
   Pulay + GGA                   : -0.408454E+01 -0.198775E+02 -0.267242E+02
   Van der Waals                 : -0.707150E-02 -0.175449E-01 -0.183956E-02
   ----------------------------------------------------------------
   Total forces(   3)            :  0.688718E-03 -0.183771E-02  0.308659E-02
  atom #    4
   Hellmann-Feynman              : -0.405111E+01  0.198945E+02 -0.267972E+02
   Ionic forces                  :  0.000000E+00  0.000000E+00  0.000000E+00
   Multipole                     : -0.226846E-01  0.305885E-01  0.598038E-01
   Hartree pot. SCF incomplete   :  0.118464E-04 -0.798898E-04  0.156007E-03
   Pulay + GGA                   :  0.407460E+01 -0.199006E+02  0.267238E+02
   Van der Waals                 :  0.705841E-02 -0.175486E-01  0.184171E-02
   ----------------------------------------------------------------
   Total forces(   4)            :  0.787704E-02  0.685834E-02 -0.115303E-01
  atom #    5
   Hellmann-Feynman              : -0.155602E+02 -0.826444E+01 -0.286399E+02
   Ionic forces                  :  0.000000E+00  0.000000E+00  0.000000E+00
   Multipole                     : -0.402104E-01 -0.126667E-01  0.570292E-01
   Hartree pot. SCF incomplete   :  0.514269E-04  0.366370E-04  0.158861E-03
   Pulay + GGA                   :  0.155844E+02  0.825912E+01  0.285653E+02
   Van der Waals                 :  0.172179E-01  0.727936E-02  0.346453E-02
   ----------------------------------------------------------------
   Total forces(   5)            :  0.127556E-02 -0.106714E-01 -0.139563E-01
  atom #    6
   Hellmann-Feynman              : -0.121887E+02 -0.198608E+02  0.242007E+02
   Ionic forces                  :  0.000000E+00  0.000000E+00  0.000000E+00
   Multipole                     : -0.275173E-02 -0.306428E-01 -0.638385E-01
   Hartree pot. SCF incomplete   :  0.557820E-04  0.755722E-04 -0.113213E-03
   Pulay + GGA                   :  0.121859E+02  0.198736E+02 -0.241332E+02
   Van der Waals                 :  0.728347E-02  0.175422E-01  0.442470E-03
   ----------------------------------------------------------------
   Total forces(   6)            :  0.182586E-02 -0.177463E-03  0.395612E-02
  atom #    7
   Hellmann-Feynman              :  0.121882E+02 -0.198643E+02 -0.242031E+02
   Ionic forces                  :  0.000000E+00  0.000000E+00  0.000000E+00
   Multipole                     :  0.269789E-02 -0.307619E-01  0.637900E-01
   Hartree pot. SCF incomplete   : -0.599730E-04  0.729080E-04  0.137456E-03
   Pulay + GGA                   : -0.121843E+02  0.198776E+02  0.241390E+02
   Van der Waals                 : -0.728873E-02  0.175388E-01 -0.448973E-03
   ----------------------------------------------------------------
   Total forces(   7)            : -0.680685E-03  0.177552E-03 -0.645321E-03
  atom #    8
   Hellmann-Feynman              : -0.237288E+02  0.825014E+01  0.223834E+02
   Ionic forces                  :  0.000000E+00  0.000000E+00  0.000000E+00
   Multipole                     : -0.205673E-01  0.128545E-01 -0.668102E-01
   Hartree pot. SCF incomplete   :  0.902330E-04 -0.369791E-04 -0.103066E-03
   Pulay + GGA                   :  0.237215E+02 -0.825075E+01 -0.222995E+02
   Van der Waals                 :  0.174536E-01 -0.727102E-02  0.206143E-02
   ----------------------------------------------------------------
   Total forces(   8)            : -0.102883E-01  0.493968E-02  0.190665E-01

  Timings for VdW correction (Tkatchenko-Scheffler 2009 or later):
  | CPU time:        0.128 s, Wall clock time:        0.128 s.
  Removing unitary transformations (pure translations, rotations) from forces on atoms.
  Atomic forces before filtering:
  | Net force on center of mass :   0.732253E-05 -0.913227E-04 -0.311675E-04 eV/A
  | Net torque on center of mass:  -0.913351E-07 -0.183386E-03  0.664522E-05 eV
  Atomic forces after filtering:
  | Net force on center of mass :   0.139380E-17 -0.209070E-17 -0.278760E-17 eV/A
  | Net torque on center of mass:  -0.986495E-17 -0.236021E-16  0.442540E-17 eV

  Energy and forces in a compact form:
  | Total energy uncorrected      :         -0.870316297297066E+05 eV
  | Total energy corrected        :         -0.870316297297066E+05 eV  <-- do not rely on this value for anything but (periodic) metals
  | Electronic free energy        :         -0.870316297297066E+05 eV
  Total atomic forces (unitary forces cleaned) [eV/Ang]:
  |    1         -0.337138576493126E-03          0.312688674983762E-03          0.330590659299184E-04
  |    2         -0.350448800418322E-03          0.329168101090090E-03         -0.661694730213795E-04
  |    3          0.692784312211364E-03         -0.182640463053799E-02          0.308431679606704E-02
  |    4          0.787180399287035E-02          0.686986678188088E-02         -0.115202654589082E-01
  |    5          0.126834651337446E-02         -0.106596717802767E-01         -0.139367746539279E-01
  |    6          0.182713406188057E-02         -0.165896710328839E-03          0.396732969647386E-02
  |    7         -0.684441521977437E-03          0.188816062185058E-03         -0.648669339226539E-03
  |    8         -0.102880399814479E-01          0.495143350100369E-02          0.190871733666132E-01

  ------------------------------------ 
  Start decomposition of the XC Energy 
  ------------------------------------ 
  X and C from original XC functional choice 
  Hartree-Fock Energy :          0.000000000 Ha              0.000000000 eV
  X Energy            :       -200.055752443 Ha          -5443.794001165 eV
  C Energy            :         -5.003423368 Ha           -136.150077083 eV
  Total XC Energy     :       -205.059175811 Ha          -5579.944078248 eV
  ------------------------------------ 
  LDA X and C from self-consistent density 
  X Energy LDA        :       -185.467206039 Ha          -5046.819455665 eV
  C Energy LDA        :         -9.954589006 Ha           -270.878148980 eV
  ------------------------------------ 
  End decomposition of the XC Energy 
  ------------------------------------ 

------------------------------------------------------------

------------------------------------------------------------------------------
  Final output of selected total energy values:

  The following output summarizes some interesting total energy values
  at the end of a run (AFTER all relaxation, molecular dynamics, etc.).

  | Total energy of the DFT / Hartree-Fock s.c.f. calculation      :         -87031.629729707 eV
  | Final zero-broadening corrected energy (caution - metals only) :         -87031.629729707 eV
  | For reference only, the value of 1 Hartree used in FHI-aims is :             27.211384500 eV

  Before relying on these values, please be sure to understand exactly which
  total energy value is referred to by a given number. Different objects may
  all carry the same name 'total energy'. Definitions:

  Total energy of the DFT / Hartree-Fock s.c.f. calculation:
  | Note that this energy does not include ANY quantities calculated after the
  | s.c.f. cycle, in particular not ANY RPA, MP2, etc. many-body perturbation terms.

  Final zero-broadening corrected energy:
  | For metallic systems only, a broadening of the occupation numbers at the Fermi
  | level can be extrapolated back to zero broadening by an electron-gas inspired
  | formula. For all systems that are not real metals, this value can be
  | meaningless and should be avoided.

------------------------------------------------------------------------------
  Methods described in the following list of references were used in this FHI-aims run.
  If you publish the results, please make sure to cite these reference if they apply.
  FHI-aims is an academic code, and for our developers (often, Ph.D. students
  and postdocs), scientific credit in the community is essential.
  Thank you for helping us!

  For any use of FHI-aims, please cite:

    Volker Blum, Ralf Gehrke, Felix Hanke, Paula Havu, Ville Havu,
    Xinguo Ren, Karsten Reuter, and Matthias Scheffler
    'Ab initio molecular simulations with numeric atom-centered orbitals'
    Computer Physics Communications 180, 2175-2196 (2009)
    http://dx.doi.org/10.1016/j.cpc.2009.06.022


  The ELSI infrastructure was used in your run to solve the Kohn-Sham electronic structure.
  Please check out http://elsi-interchange.org to learn more.
  If scalability is important for your project, please acknowledge ELSI by citing:

    V. W-z. Yu, F. Corsetti, A. Garcia, W. P. Huhn, M. Jacquelin, W. Jia,
    B. Lange, L. Lin, J. Lu, W. Mi, A. Seifitokaldani, A. Vazquez-Mayagoitia,
    C. Yang, H. Yang, and V. Blum
    'ELSI: A unified software interface for Kohn-Sham electronic structure solvers'
    Computer Physics Communications 222, 267-285 (2018).
    http://dx.doi.org/10.1016/j.cpc.2017.09.007


  For the real-space grid partitioning and parallelization used in this calculation, please cite:

    Ville Havu, Volker Blum, Paula Havu, and Matthias Scheffler,
    'Efficient O(N) integration for all-electron electronic structure calculation'
    'using numerically tabulated basis functions'
    Journal of Computational Physics 228, 8367-8379 (2009).
    http://dx.doi.org/10.1016/j.jcp.2009.08.008

  Of course, there are many other important community references, e.g., those cited in the
  above references. Our list is limited to references that describe implementations in the
  FHI-aims code. The reason is purely practical (length of this list) - please credit others as well.

------------------------------------------------------------
          Leaving FHI-aims.
          Date     :  20210927, Time     :  125232.429

          Computational steps:
          | Number of self-consistency cycles          :           12
          | Number of SCF (re)initializations          :            1

          Detailed time accounting                     :  max(cpu_time)    wall_clock(cpu1)
          | Total time                                 :        3.034 s           3.044 s
          | Preparation time                           :        0.447 s           0.447 s
          | Boundary condition initalization           :        0.000 s           0.000 s
          | Grid partitioning                          :        0.089 s           0.089 s
          | Preloading free-atom quantities on grid    :        0.020 s           0.018 s
          | Free-atom superposition energy             :        0.005 s           0.006 s
          | Total time for integrations                :        0.854 s           0.856 s
          | Total time for solution of K.-S. equations :        0.156 s           0.160 s
          | Total time for density & force components  :        0.827 s           0.828 s
          | Total time for mixing                      :        0.024 s           0.023 s
          | Total time for Hartree multipole update    :        0.031 s           0.029 s
          | Total time for Hartree multipole sum       :        0.316 s           0.315 s
          | Total time for total energy evaluation     :        0.003 s           0.002 s
          | Total time NSC force correction            :        0.049 s           0.049 s
          | Total time for scaled ZORA corrections     :        0.000 s           0.000 s
          | Total time for vdW correction              :        0.128 s           0.128 s

          Partial memory accounting:
          | Residual value for overall tracked memory usage across tasks:     0.000000 MB (should be 0.000000 MB)
          | Peak values for overall tracked memory usage:
          |   Minimum:        5.560 MB (on task 34 after allocating hessian_basis_wave)
          |   Maximum:        5.772 MB (on task 12 after allocating hessian_basis_wave)
          |   Average:        5.676 MB
          | Largest tracked array allocation:
          |   Minimum:        2.673 MB (hessian_basis_wave on task  6)
          |   Maximum:        2.783 MB (hessian_basis_wave on task 12)
          |   Average:        2.734 MB
          Note:  These values currently only include a subset of arrays which are explicitly tracked.
          The "true" memory usage will be greater.

          Have a nice day.
------------------------------------------------------------
