------------------------------------------------------------
          Invoking FHI-aims ...

          When using FHI-aims, please cite the following reference:

            Volker Blum, Ralf Gehrke, Felix Hanke, Paula Havu,
            Ville Havu, Xinguo Ren, Karsten Reuter, and Matthias Scheffler,
            'Ab Initio Molecular Simulations with Numeric Atom-Centered Orbitals',
            Computer Physics Communications 180, 2175-2196 (2009)

          In addition, many other developments in FHI-aims are likely important for
          your particular application. A partial list of references is given at the end of
          this file. Thank you for giving credit to the authors of these developments.

          For any questions about FHI-aims, please visit our slack channel at

            https://fhi-aims.slack.com

          and our main development and support site at

            https://aims-git.rz-berlin.mpg.de .

          The latter site, in particular, has a wiki to collect information, as well
          as an issue tracker to log discussions, suggest improvements, and report issues
          or bugs. https://aims-git.rz-berlin.mpg.de is also the main development site
          of the project and all new and updated code versions can be obtained there.
          Please send an email to aims-coordinators@fhi-berlin.mpg.de and we will add
          you to these sites. They are for you and everyone is welcome there.

------------------------------------------------------------



  Date     :  20210927, Time     :  130600.553
  Time zero on CPU 1             :   0.234180000000000E+00  s.
  Internal wall clock time zero  :           401979960.553  s.

  FHI-aims created a unique identifier for this run for later identification
  aims_uuid : E16EFEA8-3157-4F2B-A89E-C0BCC7B90AFB

  Build configuration of the current instance of FHI-aims
  -------------------------------------------------------
  FHI-aims version      : 210513
  Commit number         : 1a2d0b161
  CMake host system     : Linux-4.12.14-122.63-default
  CMake version         : 3.5.2
  Fortran compiler      : /mpcdf/soft/SLE_12/packages/x86_64/intel_parallel_studio/2020.1/compilers_and_libraries_2020.1.217/linux/mpi/intel64/bin/mpiifort (Intel) version 19.1.0.20200306
  Fortran compiler flags: -O3 -ip -fp-model precise
  C compiler            : /mpcdf/soft/SLE_12/packages/x86_64/intel/19.1.1/bin/icc (Intel) version 19.1.0.20200306
  C compiler flags      : -O3 -ip -fp-model precise -std=gnu99
  C++ compiler          : /mpcdf/soft/SLE_12/packages/x86_64/intel/19.1.1/bin/icpc (Intel) version 19.1.0.20200306
  C++ compiler flags    : -O3 -ip -fp-model precise -std=gnu99
  Using MPI
  Using ScaLAPACK
  Using LibXC
  Using i-PI
  Using RLSY
  Linking against: /mpcdf/soft/SLE_12/packages/x86_64/intel_parallel_studio/2020.1/mkl/lib/intel64/libmkl_intel_lp64.so
                   /mpcdf/soft/SLE_12/packages/x86_64/intel_parallel_studio/2020.1/mkl/lib/intel64/libmkl_sequential.so
                   /mpcdf/soft/SLE_12/packages/x86_64/intel_parallel_studio/2020.1/mkl/lib/intel64/libmkl_core.so
                   /mpcdf/soft/SLE_12/packages/x86_64/intel_parallel_studio/2020.1/mkl/lib/intel64/libmkl_blacs_intelmpi_lp64.so
                   /mpcdf/soft/SLE_12/packages/x86_64/intel_parallel_studio/2020.1/mkl/lib/intel64/libmkl_scalapack_lp64.so

  Using       40 parallel tasks.
  Task        0 on host co2213 reporting.
  Task        1 on host co2213 reporting.
  Task        2 on host co2213 reporting.
  Task        3 on host co2213 reporting.
  Task        4 on host co2213 reporting.
  Task        5 on host co2213 reporting.
  Task        6 on host co2213 reporting.
  Task        7 on host co2213 reporting.
  Task        8 on host co2213 reporting.
  Task        9 on host co2213 reporting.
  Task       10 on host co2213 reporting.
  Task       11 on host co2213 reporting.
  Task       12 on host co2213 reporting.
  Task       13 on host co2213 reporting.
  Task       14 on host co2213 reporting.
  Task       15 on host co2213 reporting.
  Task       16 on host co2213 reporting.
  Task       17 on host co2213 reporting.
  Task       18 on host co2213 reporting.
  Task       19 on host co2213 reporting.
  Task       20 on host co2213 reporting.
  Task       21 on host co2213 reporting.
  Task       22 on host co2213 reporting.
  Task       23 on host co2213 reporting.
  Task       24 on host co2213 reporting.
  Task       25 on host co2213 reporting.
  Task       26 on host co2213 reporting.
  Task       27 on host co2213 reporting.
  Task       28 on host co2213 reporting.
  Task       29 on host co2213 reporting.
  Task       30 on host co2213 reporting.
  Task       31 on host co2213 reporting.
  Task       32 on host co2213 reporting.
  Task       33 on host co2213 reporting.
  Task       34 on host co2213 reporting.
  Task       35 on host co2213 reporting.
  Task       36 on host co2213 reporting.
  Task       37 on host co2213 reporting.
  Task       38 on host co2213 reporting.
  Task       39 on host co2213 reporting.

  Performing system and environment tests:
  | Environment variable OMP_NUM_THREADS correctly set to 1.
  | Checking for ScaLAPACK...
  | Testing pdtran()...
  | All pdtran() tests passed.

  Obtaining array dimensions for all initial allocations:
  
  -----------------------------------------------------------------------
  Parsing control.in (first pass over file, find array dimensions only).
  The contents of control.in will be repeated verbatim below
  unless switched off by setting 'verbatim_writeout .false.' .
  in the first line of control.in .
  -----------------------------------------------------------------------
  
  ##### Physical settings  ################
  xc                 pbe
  spin               none
  charge      0.0
  relativistic       atomic_zora scalar
  #elsi_restart read
  # SCF settings
  
  #vdw_correction_hirshfeld
  # k-grid settings  (to be adjusted)
  #empty_states 8
  #use_dipole_correction
  #include_spin_orbit non_self_consistent
  
  #many_body_dispersion_nl    beta=0.81
  mixer   pulay
  n_max_pulay        12 # high for metal
  charge_mix_param   0.1 #low for metal
  many_body_dispersion_nl    beta=0.81
  ################################################################################
  #
  #  FHI-aims code project
  # Volker Blum, Fritz Haber Institute Berlin, 2009
  #
  #  Suggested "tight" defaults for S atom (to be pasted into control.in file)
  #
  #  Revised Jan 04, 2011, following tests (SiC) done by Lydia Nemec:
  #     d and g functions of tier 2 now enabled by default.
  #
  ################################################################################
    species        S
  #     global species definitions
      nucleus             16
      mass                32.065
  #
      l_hartree           6
  #
      cut_pot             4.0          2.0  1.0
      basis_dep_cutoff    1e-4
  #
      radial_base         44 7.0
      radial_multiplier   2
      angular_grids       specified
        division   0.4665  110
        division   0.5810  194
        division   0.7139  302
        division   0.8274  434
  #      division   0.9105  590
  #      division   1.0975  770
  #      division   1.2028  974
  #      outer_grid  974
        outer_grid  434
  ################################################################################
  #
  #  Definition of "minimal" basis
  #
  ################################################################################
  #     valence basis states
      valence      3  s   2.
      valence      3  p   4.
  #     ion occupancy
      ion_occ      3  s   1.
      ion_occ      3  p   3.
  ################################################################################
  #
  #  Suggested additional basis functions. For production calculations,
  #  uncomment them one after another (the most important basis functions are
  #  listed first).
  #
  #  Constructed for dimers: 1.6 A, 1.9 A, 2.5 A, 3.25 A, 4.0 A
  #
  ################################################################################
  #  "First tier" - improvements: -652.81 meV to -45.53 meV
       ionic 3 d auto
       hydro 2 p 1.8
       hydro 4 f 7
       ionic 3 s auto
  #  "Second tier" - improvements: -30.20 meV to -1.74 meV
       hydro 4 d 6.2
       hydro 5 g 10.8
  #     hydro 4 p 4.9
  #     hydro 5 f 10
  #     hydro 1 s 0.8
  #  "Third tier" - improvements: -1.04 meV to -0.20 meV
  #     hydro 3 d 3.9
  #     hydro 3 d 2.7
  #     hydro 5 g 12
  #     hydro 4 p 10.4
  #     hydro 5 f 12.4
  #     hydro 2 s 1.9
  #  "Fourth tier" - improvements: -0.35 meV to -0.06 meV
  #     hydro 4 d 10.4
  #     hydro 4 p 7.2
  #     hydro 4 d 10
  #     hydro 5 g 19.2
  #     hydro 4 s 12
  
  ################################################################################
  #
  # For methods that use the localized form of the "resolution of identity" for
  # the two-electron Coulomb operator (RI_method LVL), particularly Hartree-Fock and
  # hybrid density functional calculations, the highest accuracy can be obtained by
  # uncommenting the line beginning with "for_aux"  below, thus adding an extra g radial
  # function to the construction of the product basis set for the expansion.
  # See Ref. New J. Phys. 17, 093020 (2015) for more information, particularly Figs. 1 and 6.
  #
  ################################################################################
  #
  # for_aux hydro 5 g 6.0
  ################################################################################
  #
  #  FHI-aims code project
  # Volker Blum, Fritz Haber Institute Berlin, 2009
  #
  #  Suggested "tight" defaults for Mo atom (to be pasted into control.in file)
  #
  ################################################################################
    species        Mo
  #     global species definitions
      nucleus             42
      mass                95.94
  #
      l_hartree           6
  #
      cut_pot             4.0  2.0  1.0
      basis_dep_cutoff    1e-4
  #
      radial_base         59 7.0
      radial_multiplier   2
      angular_grids specified
        division   0.3117   50
        division   0.6750  110
        division   1.0351  194
        division   1.2073  302
        division   1.6402  434
  #      division   1.9185  590
  #      division   2.0237  770
  #      division   2.0980  974
  #      division   2.7972 1202
  #      outer_grid  974
        outer_grid  434
  ################################################################################
  #
  #  Definition of "minimal" basis
  #
  ################################################################################
  #     valence basis states
      valence      5  s   1.
      valence      4  p   6.
      valence      4  d   5.
  #     ion occupancy
      ion_occ     5  s   0.
      ion_occ     4  p   6.
      ion_occ     4  d   4.
  ################################################################################
  #
  #  Suggested additional basis functions. For production calculations,
  #  uncomment them one after another (the most important basis functions are
  #  listed first).
  #
  #  Constructed for dimers: 1.675 A, 1.9 A, 2.375 A, 3.00 A, 4.00 A
  #
  ################################################################################
  #  "First tier"  - max. impr. -711.23  meV, min. impr. -21.07 meV
       hydro 4 f 8.4
       hydro 3 d 2.8
       ionic 5 p auto
       hydro 5 g 12
       ionic 5 s auto
  #  "Second tier" - max. impr. -39.38  meV, min. impr. -2.68 meV
  #     hydro 4 f 12.4
  #     hydro 3 d 3.3
  #     hydro 6 h 17.2
  #     hydro 4 f 7.6
  #     hydro 3 p 3.0
  #     hydro 1 s 0.65
  #  "Third tier"  - max. impr. -5.50 meV, min. impr. -0.47 meV
  #     hydro 4 f 29.2
  #     hydro 5 g 11.2
  #     hydro 3 d 6.8
  #     hydro 6 h 14.8
  #     hydro 2 p 2.3
  #     hydro 4 s 3.8
  #  "Fourth tier"  - max. impr. -0.58 meV, min. impr. -0.19 meV
  #     hydro 5 f 6.8
  #     hydro 5 d 14.8
  #     hydro 6 s 7.8
  #     hydro 5 g 20.8
  #     hydro 5 d 10.4
  #     hydro 5 p 9.8
  #  Further functions - -0.17 meV and below
  #     hydro 5 d 3.2
  ################################################################################
  #
  #  FHI-aims code project
  # Volker Blum, Fritz Haber Institute Berlin, 2009
  #
  #  Suggested "tight" defaults for Se atom (to be pasted into control.in file)
  #
  ################################################################################
    species        Se
  #     global species definitions
      nucleus             34
      mass                78.96
  #
      l_hartree           6
  #
      cut_pot             4.0          2.0  1.0
      basis_dep_cutoff    1e-4
  #
      radial_base         55 7.0
      radial_multiplier   2
      angular_grids       specified
        division   0.0830  110
        division   0.1357  194
        division   0.7377  302
        division   0.8610  434
  #      division   0.9640  590
  #      division   1.0773  770
  #      division   2.5539  974
  #      outer_grid  974
        outer_grid  434
  ################################################################################
  #
  #  Definition of "minimal" basis
  #
  ################################################################################
  #     valence basis states
      valence      4  s   2.
      valence      4  p   4.
      valence      3  d  10.
  #     ion occupancy
      ion_occ      4  s   1.
      ion_occ      4  p   3.
      ion_occ      3  d  10.
  ################################################################################
  #
  #  Suggested additional basis functions. For production calculations,
  #  uncomment them one after another (the most important basis functions are
  #  listed first).
  #
  #  Constructed for dimers: 1.85 A, 2.15 A, 2.50 A, 3.00 A, 4.00 A
  #
  ################################################################################
  #  "First tier" - improvements: -336.21 meV to -36.85 meV
       hydro 3 d 4.3
       hydro 2 p 1.6
       hydro 4 f 7.2
       ionic 4 s auto
  #  "Second tier" - improvements: -14.39 meV to -1.49 meV
  #     hydro 5 g 10.4
  #     hydro 4 p 4.5
  #     hydro 4 d 6.2
  #     hydro 4 f 11.2
  #     hydro 1 s 0.65
  #     hydro 6 h 15.2
  #  "Third tier" - improvements: -0.46 meV and below
  #     hydro 5 g 14.4
  #     ionic 4 d auto
  #     hydro 4 f 22.4
  #     hydro 5 f 7.4
  #     hydro 5 p 8
  #     hydro 5 s 9.4
  #  "Fourth tier" - improvements: -0.12 meV and below
  #     hydro 5 d 11.6
  #     hydro 6 h 18
  #     hydro 4 p 4
  #     hydro 5 f 16
  #     hydro 4 s 3.9
  
  
  compute_forces .true.
  final_forces_cleaned .true.
  
  -----------------------------------------------------------------------
  Completed first pass over input file control.in .
  -----------------------------------------------------------------------
  
  
  -----------------------------------------------------------------------
  Parsing geometry.in (first pass over file, find array dimensions only).
  The contents of geometry.in will be repeated verbatim below
  unless switched off by setting 'verbatim_writeout .false.' .
  in the first line of geometry.in .
  -----------------------------------------------------------------------
  
  #
  # temporary structure-file for finite-difference calculation of forces
  # displacement   0.0025 of \# atom     0 direction     0
  #
  atom    2.54354289    5.64257156    7.80986956  Se
  atom    2.72067518    7.70434502    6.68093319  Se
  atom    1.10120478    9.16215187    7.58083516  Se
  atom   -0.75511958    9.16215530    6.12766358  Se
  atom   -2.19497214    5.64258074    5.89863097  Se
  atom   -0.93485634    4.18472234    7.25674358  Se
  atom    1.28092112    4.18471758    6.45175767  Se
  atom   -2.37459591    7.70435558    7.02756631  Se
  
  -----------------------------------------------------------------------
  Completed first pass over input file geometry.in .
  -----------------------------------------------------------------------
  

  Basic array size parameters:
  | Number of species                 :        3
  | Number of atoms                   :        8
  | Max. basis fn. angular momentum   :        4
  | Max. atomic/ionic basis occupied n:        5
  | Max. number of basis fn. types    :        3
  | Max. radial fns per species/type  :       10
  | Max. logarithmic grid size        :     1436
  | Max. radial integration grid size :      119
  | Max. angular integration grid size:      434
  | Max. angular grid division number :        8
  | Radial grid for Hartree potential :     1436
  | Number of spin channels           :        1

------------------------------------------------------------
          Reading file control.in.
------------------------------------------------------------
  XC: Using PBE gradient-corrected functionals.
  Spin treatment: No spin polarisation.
  Charge =   0.000000E+00: Neutral system requested explicitly.
  Scalar relativistic treatment of kinetic energy: on-site free-atom approximation to ZORA.
  Using pulay charge density mixing.
  Pulay mixing - number of memorized iterations:   12
  Charge density mixing - mixing parameter:     0.1000
  Using libMBD for calculating MBD and TS energies
 
  Reading configuration options for species S                   .
  | Found nuclear charge :  16.0000
  | Found atomic mass :    32.0650000000000      amu
  | Found l_max for Hartree potential  :   6
  | Found cutoff potl. onset [A], width [A], scale factor :    4.00000    2.00000    1.00000
  | Threshold for basis-dependent cutoff potential is   0.100000E-03
  | Found data for basic radial integration grid :    44 points, outermost radius =    7.000 A
  | Found multiplier for basic radial grid :   2
  | Found angular grid specification: user-specified.
  | Specified grid contains     5 separate shells.
  | Check grid settings after all constraints further below.
  | Found free-atom valence shell :  3 s   2.000
  | Found free-atom valence shell :  3 p   4.000
  | Found free-ion valence shell :  3 s   1.000
  | Found free-ion valence shell :  3 p   3.000
  | Found ionic basis function :  3 d , default cutoff radius.
  | Found hydrogenic basis function :  2 p   1.800
  | Found hydrogenic basis function :  4 f   7.000
  | Found ionic basis function :  3 s , default cutoff radius.
  | Found hydrogenic basis function :  4 d   6.200
  | Found hydrogenic basis function :  5 g  10.800
  Species S                   : Missing cutoff potential type.
  Defaulting to exp(1/x)/(1-x)^2 type cutoff potential.
  Species S : No 'logarithmic' tag. Using default grid for free atom:
  | Default logarithmic grid data [bohr] : 0.1000E-03 0.1000E+03 0.1012E+01
  | Will include ionic basis functions of  2.0-fold positive S                    ion.
  Species S : On-site basis accuracy parameter (for Gram-Schmidt orthonormalisation) not specified.
  Using default value basis_acc =  0.1000000E-03.
  Species S                   : Using default innermost maximum threshold i_radial=  2 for radial functions.
  Species S                   : Default cutoff onset for free atom density etc. : 0.40000000E+01 AA.
  Species S                   : Basic radial grid will be enhanced according to radial_multiplier =   2, to contain    89 grid points.
 
  Reading configuration options for species Mo                  .
  | Found nuclear charge :  42.0000
  | Found atomic mass :    95.9400000000000      amu
  | Found l_max for Hartree potential  :   6
  | Found cutoff potl. onset [A], width [A], scale factor :    4.00000    2.00000    1.00000
  | Threshold for basis-dependent cutoff potential is   0.100000E-03
  | Found data for basic radial integration grid :    59 points, outermost radius =    7.000 A
  | Found multiplier for basic radial grid :   2
  | Found angular grid specification: user-specified.
  | Specified grid contains     6 separate shells.
  | Check grid settings after all constraints further below.
  | Found free-atom valence shell :  5 s   1.000
  | Found free-atom valence shell :  4 p   6.000
  | Found free-atom valence shell :  4 d   5.000
  | Found free-ion valence shell :  5 s   0.000
  | Found free-ion valence shell :  4 p   6.000
  | Found free-ion valence shell :  4 d   4.000
  | Found hydrogenic basis function :  4 f   8.400
  | Found hydrogenic basis function :  3 d   2.800
  | Found ionic basis function :  5 p , default cutoff radius.
  | Found hydrogenic basis function :  5 g  12.000
  | Found ionic basis function :  5 s , default cutoff radius.
  Species Mo                  : Missing cutoff potential type.
  Defaulting to exp(1/x)/(1-x)^2 type cutoff potential.
  Species Mo: No 'logarithmic' tag. Using default grid for free atom:
  | Default logarithmic grid data [bohr] : 0.1000E-03 0.1000E+03 0.1012E+01
  | Will include ionic basis functions of  2.0-fold positive Mo                   ion.
  Species Mo: On-site basis accuracy parameter (for Gram-Schmidt orthonormalisation) not specified.
  Using default value basis_acc =  0.1000000E-03.
  Species Mo                  : Using default innermost maximum threshold i_radial=  2 for radial functions.
  Species Mo                  : Default cutoff onset for free atom density etc. : 0.40000000E+01 AA.
  Species Mo                  : Basic radial grid will be enhanced according to radial_multiplier =   2, to contain   119 grid points.
 
  Reading configuration options for species Se                  .
  | Found nuclear charge :  34.0000
  | Found atomic mass :    78.9600000000000      amu
  | Found l_max for Hartree potential  :   6
  | Found cutoff potl. onset [A], width [A], scale factor :    4.00000    2.00000    1.00000
  | Threshold for basis-dependent cutoff potential is   0.100000E-03
  | Found data for basic radial integration grid :    55 points, outermost radius =    7.000 A
  | Found multiplier for basic radial grid :   2
  | Found angular grid specification: user-specified.
  | Specified grid contains     5 separate shells.
  | Check grid settings after all constraints further below.
  | Found free-atom valence shell :  4 s   2.000
  | Found free-atom valence shell :  4 p   4.000
  | Found free-atom valence shell :  3 d  10.000
  | Found free-ion valence shell :  4 s   1.000
  | Found free-ion valence shell :  4 p   3.000
  | Found free-ion valence shell :  3 d  10.000
  | Found hydrogenic basis function :  3 d   4.300
  | Found hydrogenic basis function :  2 p   1.600
  | Found hydrogenic basis function :  4 f   7.200
  | Found ionic basis function :  4 s , default cutoff radius.
  Species Se                  : Missing cutoff potential type.
  Defaulting to exp(1/x)/(1-x)^2 type cutoff potential.
  Species Se: No 'logarithmic' tag. Using default grid for free atom:
  | Default logarithmic grid data [bohr] : 0.1000E-03 0.1000E+03 0.1012E+01
  | Will include ionic basis functions of  2.0-fold positive Se                   ion.
  Species Se: On-site basis accuracy parameter (for Gram-Schmidt orthonormalisation) not specified.
  Using default value basis_acc =  0.1000000E-03.
  Species Se                  : Using default innermost maximum threshold i_radial=  2 for radial functions.
  Species Se                  : Default cutoff onset for free atom density etc. : 0.40000000E+01 AA.
  Species Se                  : Basic radial grid will be enhanced according to radial_multiplier =   2, to contain   111 grid points.
  Forces will be computed.
  Cleaning forces before final output.
 
  Finished reading input file 'control.in'.
 
------------------------------------------------------------


------------------------------------------------------------
          Reading geometry description geometry.in.
------------------------------------------------------------
  | The smallest distance between any two atoms is         2.35728296 AA.
  | The first atom of this pair is atom number                      1 .
  | The second atom of this pair is atom number                     2 .
  Input structure read successfully.
  The structure contains        8 atoms,  and a total of        272.000 electrons.

  Input geometry:
  | No unit cell requested.
  | Atomic structure:
  |       Atom                x [A]            y [A]            z [A]
  |    1: Species Se            2.54354289        5.64257156        7.80986956
  |    2: Species Se            2.72067518        7.70434502        6.68093319
  |    3: Species Se            1.10120478        9.16215187        7.58083516
  |    4: Species Se           -0.75511958        9.16215530        6.12766358
  |    5: Species Se           -2.19497214        5.64258074        5.89863097
  |    6: Species Se           -0.93485634        4.18472234        7.25674358
  |    7: Species Se            1.28092112        4.18471758        6.45175767
  |    8: Species Se           -2.37459591        7.70435558        7.02756631

 
  Finished reading input file 'control.in'.
 

------------------------------------------------------------
          Reading geometry description geometry.in.
------------------------------------------------------------
 
  Consistency checks for stacksize environment parameter are next.
 
  | Maximum stacksize for task 0: unlimited
  | Maximum stacksize for task 1: unlimited
  | Maximum stacksize for task 2: unlimited
  | Maximum stacksize for task 3: unlimited
  | Maximum stacksize for task 4: unlimited
  | Maximum stacksize for task 5: unlimited
  | Maximum stacksize for task 6: unlimited
  | Maximum stacksize for task 7: unlimited
  | Maximum stacksize for task 8: unlimited
  | Maximum stacksize for task 9: unlimited
  | Maximum stacksize for task 10: unlimited
  | Maximum stacksize for task 11: unlimited
  | Maximum stacksize for task 12: unlimited
  | Maximum stacksize for task 13: unlimited
  | Maximum stacksize for task 14: unlimited
  | Maximum stacksize for task 15: unlimited
  | Maximum stacksize for task 16: unlimited
  | Maximum stacksize for task 17: unlimited
  | Maximum stacksize for task 18: unlimited
  | Maximum stacksize for task 19: unlimited
  | Maximum stacksize for task 20: unlimited
  | Maximum stacksize for task 21: unlimited
  | Maximum stacksize for task 22: unlimited
  | Maximum stacksize for task 23: unlimited
  | Maximum stacksize for task 24: unlimited
  | Maximum stacksize for task 25: unlimited
  | Maximum stacksize for task 26: unlimited
  | Maximum stacksize for task 27: unlimited
  | Maximum stacksize for task 28: unlimited
  | Maximum stacksize for task 29: unlimited
  | Maximum stacksize for task 30: unlimited
  | Maximum stacksize for task 31: unlimited
  | Maximum stacksize for task 32: unlimited
  | Maximum stacksize for task 33: unlimited
  | Maximum stacksize for task 34: unlimited
  | Maximum stacksize for task 35: unlimited
  | Maximum stacksize for task 36: unlimited
  | Maximum stacksize for task 37: unlimited
  | Maximum stacksize for task 38: unlimited
  | Maximum stacksize for task 39: unlimited
  | Current stacksize for task 0: unlimited
  | Current stacksize for task 1: unlimited
  | Current stacksize for task 2: unlimited
  | Current stacksize for task 3: unlimited
  | Current stacksize for task 4: unlimited
  | Current stacksize for task 5: unlimited
  | Current stacksize for task 6: unlimited
  | Current stacksize for task 7: unlimited
  | Current stacksize for task 8: unlimited
  | Current stacksize for task 9: unlimited
  | Current stacksize for task 10: unlimited
  | Current stacksize for task 11: unlimited
  | Current stacksize for task 12: unlimited
  | Current stacksize for task 13: unlimited
  | Current stacksize for task 14: unlimited
  | Current stacksize for task 15: unlimited
  | Current stacksize for task 16: unlimited
  | Current stacksize for task 17: unlimited
  | Current stacksize for task 18: unlimited
  | Current stacksize for task 19: unlimited
  | Current stacksize for task 20: unlimited
  | Current stacksize for task 21: unlimited
  | Current stacksize for task 22: unlimited
  | Current stacksize for task 23: unlimited
  | Current stacksize for task 24: unlimited
  | Current stacksize for task 25: unlimited
  | Current stacksize for task 26: unlimited
  | Current stacksize for task 27: unlimited
  | Current stacksize for task 28: unlimited
  | Current stacksize for task 29: unlimited
  | Current stacksize for task 30: unlimited
  | Current stacksize for task 31: unlimited
  | Current stacksize for task 32: unlimited
  | Current stacksize for task 33: unlimited
  | Current stacksize for task 34: unlimited
  | Current stacksize for task 35: unlimited
  | Current stacksize for task 36: unlimited
  | Current stacksize for task 37: unlimited
  | Current stacksize for task 38: unlimited
  | Current stacksize for task 39: unlimited
 
  Consistency checks for the contents of control.in are next.
 
  MPI_IN_PLACE appears to work with this MPI implementation.
  | Keeping use_mpi_in_place .true. (see manual).
  Target number of points in a grid batch is not set. Defaulting to  100
  Method for grid partitioning is not set. Defaulting to parallel hash+maxmin partitioning.
  Batch size limit is not set. Defaulting to    200
  By default, will store active basis functions for each batch.
  If in need of memory, prune_basis_once .false. can be used to disable this option.
  communication_type for Hartree potential was not specified.
  Defaulting to calc_hartree .
  Pulay mixer: Number of initial linear mixing iterations not set.
  Defaulting to    0 iterations.
  Work space size for distributed Hartree potential not set.
  Defaulting to   0.200000E+03 MB.
  Algorithm-dependent basis array size parameters:
  | n_max_pulay                         :       12
  Maximum number of self-consistency iterations not provided.
  Presetting  1000 iterations.
  Presetting      1001 iterations before the initial mixing cycle
  is restarted anyway using the sc_init_iter criterion / keyword.
  Presetting a factor      1.000 between actual scf density residual
  and density convergence criterion sc_accuracy_rho below which sc_init_iter
  takes no effect.
 * No s.c.f. convergence criteria (sc_accuracy_*) were provided in control.in.
 * The run will proceed with a reasonable default guess, but please check whether.
 * the s.c.f. cycles seem to take too much or too little time.
  Geometry relaxation not requested: no relaxation will be performed.
  Forces evaluation will include force correction term due to incomplete self-consistency (default).
 * Notice: The s.c.f. convergence criterion sc_accuracy_rho was not provided.
 * We used to stop in this case, and ask the user to provide reasonable
 * scf convergence criteria. However, this led some users to employ criteria
 * that led to extremely long run times, e.g., for simple relaxation.
 * We now preset a default value for sc_accuracy_rho if it is not set.
 * You may still wish to check if this setting is too tight or too loose for your needs.
 * Based on n_atoms and forces and force-correction status, FHI-aims chose sc_accuracy_rho =  0.923760E-05 .
  Force calculation: scf convergence accuracy of forces not set.
  Defaulting to 'sc_accuracy_forces not_checked'.
  Handling of forces: Unphysical translation and rotation will be removed from forces.
  No accuracy limit for integral partition fn. given. Defaulting to  0.1000E-14.
  No threshold value for u(r) in integrations given. Defaulting to  0.1000E-05.
  No occupation type (smearing scheme) given. Defaulting to Gaussian broadening, width =  0.1000E-01 eV.
  The width will be adjusted in iteration number     2 of the first full s.c.f. cycle only.
  S.C.F. convergence parameters will be adjusted in iteration number     2 of the first full s.c.f. cycle only.
  No accuracy for occupation numbers given. Defaulting to  0.1000E-12.
  No threshold value for occupation numbers given. Defaulting to  0.0000E+00.
  No accuracy for fermi level given. Defaulting to  0.1000E-19.
  Maximum # of iterations to find E_F not set. Defaulting to  200.
  Preferred method for the eigenvalue solver ('KS_method') not specified in 'control.in'.
  Calling BLACS routine to test compilation state
  Since ScaLAPACK support is enabled, defaulting to ELPA (via ELSI).
  Will not use alltoall communication since running on < 1024 CPUs.
  Threshold for basis singularities not set.
  Default threshold for basis singularities:  0.1000E-04
  partition_type (choice of integration weights) for integrals was not specified.
  | Using a version of the partition function of Stratmann and coworkers ('stratmann_sparse').
  | At each grid point, the set of atoms used to build the partition table is smoothly restricted to
  | only those atoms whose free-atom density would be non-zero at that grid point.
  Partitioning for Hartree potential was not defined. Using partition_type for integrals.
  | Adjusted default value of keyword multip_moments_threshold to:       0.10000000E-11
  | This value may affect high angular momentum components of the Hartree potential in periodic systems.
  No q(lm)/r^(l+1) cutoff set for long-range Hartree potential.
  | Using default value of  0.100000E-09 .
  | Verify using the multipole_threshold keyword.
  Defaulting to new monopole extrapolation.
  Density update method: automatic selection selected.
  Charge integration errors on the 3D integration grid will be compensated
  by explicit normalization and distribution of residual charges.
  Use the "compensate_multipole_errors" flag to change this behaviour.
  Set 'collect_eigenvectors' to be '.true.' for use_density_matrix .false.
 
  Consistency checks for the contents of geometry.in are next.
 
  Number of empty states per atom not set in control.in - providing a guess from actual geometry.
  | Total number of empty states used during s.c.f. cycle:       44
  If you use a very high smearing, use empty_states (per atom!) in control.in to increase this value.

  Structure-dependent array size parameters: 
  | Maximum number of distinct radial functions  :       38
  | Maximum number of basis functions            :      272
  | Number of Kohn-Sham states (occupied + empty):      180
------------------------------------------------------------

------------------------------------------------------------
          Preparing all fixed parts of the calculation.
------------------------------------------------------------
  Determining machine precision:
    2.225073858507201E-308
  Setting up grids for atomic and cluster calculations.

  Creating wave function, potential, and density for free atoms.

  Species: S

  List of occupied orbitals and eigenvalues:
    n    l              occ      energy [Ha]    energy [eV]
    1    0           2.0000       -88.680731     -2413.1255
    2    0           2.0000        -7.781719      -211.7513
    3    0           2.0000        -0.633662       -17.2428
    2    1           6.0000        -5.751976      -156.5192
    3    1           4.0000        -0.257086        -6.9957


  Species: Mo

  List of occupied orbitals and eigenvalues:
    n    l              occ      energy [Ha]    energy [eV]
    1    0           2.0000      -745.344654    -20281.8600
    2    0           2.0000      -103.288246     -2810.6162
    3    0           2.0000       -17.516687      -476.6533
    4    0           2.0000        -2.358559       -64.1796
    5    0           1.0000        -0.145159        -3.9500
    2    1           6.0000       -92.308627     -2511.8455
    3    1           6.0000       -13.936005      -379.2180
    4    1           6.0000        -1.408138       -38.3174
    3    2          10.0000        -8.119011      -220.9295
    4    2           5.0000        -0.132984        -3.6187


  Species: Se

  List of occupied orbitals and eigenvalues:
    n    l              occ      energy [Ha]    energy [eV]
    1    0           2.0000      -466.337810    -12689.6975
    2    0           2.0000       -59.202598     -1610.9847
    3    0           2.0000        -7.847116      -213.5309
    4    0           2.0000        -0.634372       -17.2621
    2    1           6.0000       -52.061107     -1416.6548
    3    1           6.0000        -5.620941      -152.9536
    4    1           4.0000        -0.238469        -6.4891
    3    2          10.0000        -1.951949       -53.1152


  Adding cutoff potential to free-atom effective potential.
  Creating fixed part of basis set: Ionic, confined, hydrogenic.
 
  S                    ion:

  List of free ionic orbitals and eigenvalues:
    n    l      energy [Ha]    energy [eV]
    1    0       -89.703778     -2440.9640
    2    0        -8.775428      -238.7916
    3    0        -1.470343       -40.0101
    2    1        -6.747660      -183.6132
    3    1        -1.048627       -28.5346


  List of ionic basis orbitals and eigenvalues:
    n    l      energy [Ha]    energy [eV]    outer radius [A]
    3    2        -0.495605       -13.4861       5.386362
    3    0        -1.470336       -40.0099       3.967934

 
  S                    hydrogenic:
 
  List of hydrogenic basis orbitals: 
    n    l      effective z      eigenvalue [eV]  inner max. [A]     outer max. [A]     outer radius [A]   
    2    1         1.800000       -11.0118           1.168531           1.168531           5.452614
    4    3         7.000000       -41.6672           1.212182           1.212182           5.066981
    4    2         6.200000       -32.6848           0.582121           1.814567           5.386362
    5    4        10.800000       -63.4785           1.227092           1.227092           4.766538
 
 
  Mo                   ion:

  List of free ionic orbitals and eigenvalues:
    n    l      energy [Ha]    energy [eV]
    1    0      -746.048685    -20301.0176
    2    0      -103.980912     -2829.4646
    3    0       -18.206601      -495.4268
    4    0        -3.040545       -82.7374
    2    1       -93.001013     -2530.6863
    3    1       -14.625827      -397.9890
    4    1        -2.084855       -56.7318
    3    2        -8.808854      -239.7011
    4    2        -0.765435       -20.8285


  List of ionic basis orbitals and eigenvalues:
    n    l      energy [Ha]    energy [eV]    outer radius [A]
    5    1        -0.465587       -12.6693       5.456393
    5    0        -0.650331       -17.6964       5.390095

 
  Mo                   hydrogenic:
 
  List of hydrogenic basis orbitals: 
    n    l      effective z      eigenvalue [eV]  inner max. [A]     outer max. [A]     outer radius [A]   
    4    3         8.400000       -60.0010           1.009788           1.009788           4.487018
    3    2         2.800000       -11.8048           1.687401           1.687401           5.456393
    5    4        12.000000       -78.3687           1.100005           1.100005           4.432498
 
 
  Se                   ion:

  List of free ionic orbitals and eigenvalues:
    n    l      energy [Ha]    energy [eV]
    1    0      -467.261007    -12714.8189
    2    0       -60.104893     -1635.5374
    3    0        -8.743714      -237.9286
    4    0        -1.414053       -38.4783
    2    1       -52.964156     -1441.2280
    3    1        -6.516916      -177.3343
    4    1        -0.961869       -26.1738
    3    2        -2.844511       -77.4031


  List of ionic basis orbitals and eigenvalues:
    n    l      energy [Ha]    energy [eV]    outer radius [A]
    4    0        -1.414046       -38.4782       4.083166

 
  Se                   hydrogenic:
 
  List of hydrogenic basis orbitals: 
    n    l      effective z      eigenvalue [eV]  inner max. [A]     outer max. [A]     outer radius [A]   
    3    2         4.300000       -27.9518           1.103845           1.103845           5.278265
    2    1         1.600000        -8.6828           1.326010           1.326010           5.475439
    4    3         7.200000       -44.0822           1.173422           1.173422           4.965294
 
  Creating atomic-like basis functions for current effective potential.

  Species S                   :

  List of atomic basis orbitals and eigenvalues:
    n    l      energy [Ha]    energy [eV]    outer radius [A]
    1    0       -88.680731     -2413.1255       0.682391
    2    0        -7.781719      -211.7513       2.289014
    3    0        -0.633662       -17.2428       5.256262
    2    1        -5.751976      -156.5192       2.555240
    3    1        -0.257086        -6.9957       5.386362


  Species Mo                  :

  List of atomic basis orbitals and eigenvalues:
    n    l      energy [Ha]    energy [eV]    outer radius [A]
    1    0      -745.344654    -20281.8600       0.247552
    2    0      -103.288246     -2810.6162       0.682864
    3    0       -17.516687      -476.6533       1.626637
    4    0        -2.358559       -64.1796       4.220963
    5    0        -0.145159        -3.9500       5.456393
    2    1       -92.308627     -2511.8455       0.699766
    3    1       -13.936005      -379.2180       1.793761
    4    1        -1.408138       -38.3174       4.828511
    3    2        -8.119011      -220.9295       2.181285
    4    2        -0.132984        -3.6187       5.390095


  Species Se                  :

  List of atomic basis orbitals and eigenvalues:
    n    l      energy [Ha]    energy [eV]    outer radius [A]
    1    0      -466.337810    -12689.6975       0.309561
    2    0       -59.202598     -1610.9847       0.885812
    3    0        -7.847116      -213.5309       2.355489
    4    0        -0.634372       -17.2621       5.214131
    2    1       -52.061107     -1416.6548       0.907737
    3    1        -5.620941      -152.9536       2.694529
    4    1        -0.238469        -6.4891       5.408909
    3    2        -1.951949       -53.1152       4.083166

  Assembling full basis from fixed parts.
  | Species S :   atomic orbital   1 s accepted.
  | Species S :   atomic orbital   2 s accepted.
  | Species S :    ionic orbital   3 s accepted.
  | Species S :   atomic orbital   3 s accepted.
  | Species S :   atomic orbital   2 p accepted.
  | Species S :   atomic orbital   3 p accepted.
  | Species S :    hydro orbital   2 p accepted.
  | Species S :    ionic orbital   3 d accepted.
  | Species S :    hydro orbital   4 d accepted.
  | Species S :    hydro orbital   4 f accepted.
  | Species S :    hydro orbital   5 g accepted.
  | Species Mo :   atomic orbital   1 s accepted.
  | Species Mo :   atomic orbital   2 s accepted.
  | Species Mo :   atomic orbital   3 s accepted.
  | Species Mo :   atomic orbital   4 s accepted.
  | Species Mo :    ionic orbital   5 s accepted.
  | Species Mo :   atomic orbital   5 s accepted.
  | Species Mo :   atomic orbital   2 p accepted.
  | Species Mo :   atomic orbital   3 p accepted.
  | Species Mo :   atomic orbital   4 p accepted.
  | Species Mo :    ionic orbital   5 p accepted.
  | Species Mo :   atomic orbital   3 d accepted.
  | Species Mo :   atomic orbital   4 d accepted.
  | Species Mo :    hydro orbital   3 d accepted.
  | Species Mo :    hydro orbital   4 f accepted.
  | Species Mo :    hydro orbital   5 g accepted.
  | Species Se :   atomic orbital   1 s accepted.
  | Species Se :   atomic orbital   2 s accepted.
  | Species Se :   atomic orbital   3 s accepted.
  | Species Se :    ionic orbital   4 s accepted.
  | Species Se :   atomic orbital   4 s accepted.
  | Species Se :   atomic orbital   2 p accepted.
  | Species Se :   atomic orbital   3 p accepted.
  | Species Se :   atomic orbital   4 p accepted.
  | Species Se :    hydro orbital   2 p accepted.
  | Species Se :   atomic orbital   3 d accepted.
  | Species Se :    hydro orbital   3 d accepted.
  | Species Se :    hydro orbital   4 f accepted.
 
  Basis size parameters after reduction:
  | Total number of radial functions:       38
  | Total number of basis functions :      272
 
  Per-task memory consumption for arrays in subroutine allocate_ext:
  |          13.978524MB.
  Testing on-site integration grid accuracy.
  |  Species  Function  <phi|h_atom|phi> (log., in eV)  <phi|h_atom|phi> (rad., in eV)
           1        1              -2413.1254568977              -2413.1254096663
           1        2               -211.7513411281               -211.7513404762
           1        3                -16.9725280787                -16.9725279206
           1        4                  7.6024436204                  7.6024549059
           1        5               -156.5192206929               -156.5192205451
           1        6                 -6.9959757887                 -6.9959777655
           1        7                  6.8896462808                  6.8895564741
           1        8                  6.0214250550                  6.0214220200
           1        9                 19.6206468977                 19.6206494558
           1       10                 24.7008710786                 24.7008710738
           1       11                 47.5292252001                 47.5292260486
           2       12             -20281.8599610543             -20281.8584300616
           2       13              -2810.6161812280              -2810.6161551921
           2       14               -476.6533163555               -476.6533136395
           2       15                -64.1796433667                -64.1796426456
           2       16                 -3.3691762756                 -3.3691802887
           2       17                  4.4704608512                  4.4699102345
           2       18              -2511.8455406047              -2511.8455385741
           2       19               -379.2179896350               -379.2179882338
           2       20                -38.3173891619                -38.3173886619
           2       21                  0.2493245095                  0.2492931069
           2       22               -220.9295301098               -220.9295297081
           2       23                 -3.6195697699                 -3.6195754704
           2       24                  7.1428000922                  7.1426882355
           2       25                 23.3975871087                 23.3975871819
           2       26                 50.2449608881                 50.2449608586
           3       27             -12689.6974611609             -12689.6967666984
           3       28              -1610.9846578580              -1610.9846472470
           3       29               -213.5308789869               -213.5308777267
           3       30                -17.0464428502                -17.0464426496
           3       31                  6.7356859379                  6.7356842047
           3       32              -1416.6548010133              -1416.6548002108
           3       33               -152.9535734377               -152.9535727493
           3       34                 -6.4896265677                 -6.4896303794
           3       35                  5.2703037283                  5.2701679583
           3       36                -53.1152220964                -53.1152219035
           3       37                  7.6186674138                  7.6186665630
           3       38                 23.1072799052                 23.1072803137

  Preparing densities etc. for the partition functions (integrals / Hartree potential).
 Frequency grid relative error: 0.12418110983958286E-009                        
   
 Will use parallel mode: atoms     
 BLACS block size: 3                                                 

  Preparations completed.
  max(cpu_time)          :      0.629 s.
  Wall clock time (cpu1) :      0.629 s.
------------------------------------------------------------

------------------------------------------------------------
          Begin self-consistency loop: Initialization.

          Date     :  20210927, Time     :  130601.243
------------------------------------------------------------

  Initializing index lists of integration centers etc. from given atomic structure:
  | Number of centers in hartree potential         :         8
  | Number of centers in hartree multipole         :         8
  | Number of centers in electron density summation:         8
  | Number of centers in basis integrals           :         8
  | Number of centers in integrals                 :         8
  | Number of centers in hamiltonian               :         8
  * Using 40 tasks for Scalapack Eigenvalue solver.
  Detailed listing of tasks and assigned k-points:
  (for non-periodic systems, the "k-point" denotes an internal label only)
   Task     0 k-point     1 on co2213
   Task     1 k-point     1 on co2213
   Task     2 k-point     1 on co2213
   Task     3 k-point     1 on co2213
   Task     4 k-point     1 on co2213
   Task     5 k-point     1 on co2213
   Task     6 k-point     1 on co2213
   Task     7 k-point     1 on co2213
   Task     8 k-point     1 on co2213
   Task     9 k-point     1 on co2213
   Task    10 k-point     1 on co2213
   Task    11 k-point     1 on co2213
   Task    12 k-point     1 on co2213
   Task    13 k-point     1 on co2213
   Task    14 k-point     1 on co2213
   Task    15 k-point     1 on co2213
   Task    16 k-point     1 on co2213
   Task    17 k-point     1 on co2213
   Task    18 k-point     1 on co2213
   Task    19 k-point     1 on co2213
   Task    20 k-point     1 on co2213
   Task    21 k-point     1 on co2213
   Task    22 k-point     1 on co2213
   Task    23 k-point     1 on co2213
   Task    24 k-point     1 on co2213
   Task    25 k-point     1 on co2213
   Task    26 k-point     1 on co2213
   Task    27 k-point     1 on co2213
   Task    28 k-point     1 on co2213
   Task    29 k-point     1 on co2213
   Task    30 k-point     1 on co2213
   Task    31 k-point     1 on co2213
   Task    32 k-point     1 on co2213
   Task    33 k-point     1 on co2213
   Task    34 k-point     1 on co2213
   Task    35 k-point     1 on co2213
   Task    36 k-point     1 on co2213
   Task    37 k-point     1 on co2213
   Task    38 k-point     1 on co2213
   Task    39 k-point     1 on co2213
  Tasks:    40 split into      8 X      5 BLACS grid
  Calculating block size based on n_basis =          272  max_nprow =            8  max_npcol =            5
  ScaLAPACK block size set to:           16
  Allocating        0.023 MB for ovlp
  Allocating        0.023 MB for ham
  Allocating        0.023 MB for eigenvec
  Required Scalapack workspace - INTEGER:            1  REAL:             1
  Partitioning the integration grid into batches with parallel hashing+maxmin method.
  | Number of batches:     3317
  | Maximal batch size:     188
  | Minimal batch size:      19
  | Average batch size:      85.017
  | Standard deviation of batch sizes:      31.034

  Integration load balanced across    40 MPI tasks.
  Work distribution over tasks is as follows:
  Task     0 has       7081 integration points.
  Task     1 has       7092 integration points.
  Task     2 has       7101 integration points.
  Task     3 has       7003 integration points.
  Task     4 has       6997 integration points.
  Task     5 has       7042 integration points.
  Task     6 has       6987 integration points.
  Task     7 has       7050 integration points.
  Task     8 has       7087 integration points.
  Task     9 has       6999 integration points.
  Task    10 has       7090 integration points.
  Task    11 has       6961 integration points.
  Task    12 has       6996 integration points.
  Task    13 has       7003 integration points.
  Task    14 has       7084 integration points.
  Task    15 has       6988 integration points.
  Task    16 has       7073 integration points.
  Task    17 has       7102 integration points.
  Task    18 has       7006 integration points.
  Task    19 has       7097 integration points.
  Task    20 has       7095 integration points.
  Task    21 has       7044 integration points.
  Task    22 has       6964 integration points.
  Task    23 has       6999 integration points.
  Task    24 has       7100 integration points.
  Task    25 has       7099 integration points.
  Task    26 has       7077 integration points.
  Task    27 has       7088 integration points.
  Task    28 has       7105 integration points.
  Task    29 has       6972 integration points.
  Task    30 has       6958 integration points.
  Task    31 has       7092 integration points.
  Task    32 has       7059 integration points.
  Task    33 has       7102 integration points.
  Task    34 has       7038 integration points.
  Task    35 has       7111 integration points.
  Task    36 has       6993 integration points.
  Task    37 has       7080 integration points.
  Task    38 has       7078 integration points.
  Task    39 has       7107 integration points.
  Initializing partition tables, free-atom densities, potentials, etc. across the integration grid (initialize_grid_storage).
  | initialize_grid_storage: Actual outermost partition radius vs. multipole_radius_free
  | (-- VB: in principle, multipole_radius_free should be larger, hence this output)
  | Species        1: Confinement radius =              6.000000000000000 AA, multipole_radius_free =              6.012827091137924 AA.
  | Species        1: outer_partition_radius set to              6.012827091137924 AA .
  | Species        2: Confinement radius =              6.000000000000000 AA, multipole_radius_free =              6.016994434057369 AA.
  | Species        2: outer_partition_radius set to              6.016994434057369 AA .
  | Species        3: Confinement radius =              6.000000000000000 AA, multipole_radius_free =              6.037996416842453 AA.
  | Species        3: outer_partition_radius set to              6.037996416842453 AA .
  | The sparse table of interatomic distances needs          0.71 kbyte instead of         0.51 kbyte of memory.
  | Using the partition_type stratmann_smoother will reduce your memory usage.
  | Net number of integration points:   282000
  | of which are non-zero points    :   268020
  Renormalizing the initial density to the exact electron count on the 3D integration grid.
  | Initial density: Formal number of electrons (from input files) :     272.0000000000
  | Integrated number of electrons on 3D grid     :     271.9999863790
  | Charge integration error                      :      -0.0000136210
  | Normalization factor for density and gradient :       1.0000000501
  Renormalizing the free-atom superposition density to the exact electron count on the 3D integration grid.
  | Formal number of electrons (from input files) :     272.0000000000
  | Integrated number of electrons on 3D grid     :     271.9999863790
  | Charge integration error                      :      -0.0000136210
  | Normalization factor for density and gradient :       1.0000000501
  Obtaining max. number of non-zero basis functions in each batch (get_n_compute_maxes).
  | Maximal number of non-zero basis functions:      229 in task     0
  | Maximal number of non-zero basis functions:      222 in task     1
  | Maximal number of non-zero basis functions:      219 in task     2
  | Maximal number of non-zero basis functions:      220 in task     3
  | Maximal number of non-zero basis functions:      221 in task     4
  | Maximal number of non-zero basis functions:      220 in task     5
  | Maximal number of non-zero basis functions:      225 in task     6
  | Maximal number of non-zero basis functions:      222 in task     7
  | Maximal number of non-zero basis functions:      219 in task     8
  | Maximal number of non-zero basis functions:      220 in task     9
  | Maximal number of non-zero basis functions:      221 in task    10
  | Maximal number of non-zero basis functions:      219 in task    11
  | Maximal number of non-zero basis functions:      222 in task    12
  | Maximal number of non-zero basis functions:      224 in task    13
  | Maximal number of non-zero basis functions:      225 in task    14
  | Maximal number of non-zero basis functions:      229 in task    15
  | Maximal number of non-zero basis functions:      220 in task    16
  | Maximal number of non-zero basis functions:      229 in task    17
  | Maximal number of non-zero basis functions:      222 in task    18
  | Maximal number of non-zero basis functions:      220 in task    19
  | Maximal number of non-zero basis functions:      226 in task    20
  | Maximal number of non-zero basis functions:      220 in task    21
  | Maximal number of non-zero basis functions:      221 in task    22
  | Maximal number of non-zero basis functions:      220 in task    23
  | Maximal number of non-zero basis functions:      229 in task    24
  | Maximal number of non-zero basis functions:      220 in task    25
  | Maximal number of non-zero basis functions:      223 in task    26
  | Maximal number of non-zero basis functions:      229 in task    27
  | Maximal number of non-zero basis functions:      219 in task    28
  | Maximal number of non-zero basis functions:      229 in task    29
  | Maximal number of non-zero basis functions:      228 in task    30
  | Maximal number of non-zero basis functions:      223 in task    31
  | Maximal number of non-zero basis functions:      222 in task    32
  | Maximal number of non-zero basis functions:      220 in task    33
  | Maximal number of non-zero basis functions:      223 in task    34
  | Maximal number of non-zero basis functions:      220 in task    35
  | Maximal number of non-zero basis functions:      222 in task    36
  | Maximal number of non-zero basis functions:      223 in task    37
  | Maximal number of non-zero basis functions:      220 in task    38
  | Maximal number of non-zero basis functions:      222 in task    39
  Selecting the method for density update.
  Electron density will be updated via Kohn Sham orbitals; 
  first geometry step: forces will be updated via orbitals;
  second geometry step: forces will be updated via density matrix;
  finally, the fastest method will be selected
  Scalapack and automatic selection of force update requested:
  Switching to packed matrix format "index" by default.
  Hamiltonian matrix size:
  | Size of matrix non-packed:                 37128
  | Size of matrix packed:           35625
  Allocating        0.374 MB for KS_eigenvector
  Integrating Hamiltonian matrix: batch-based integration.
  Time summed over all CPUs for integration: real work        2.802 s, elapsed        2.912 s
  Integrating overlap matrix.
  Time summed over all CPUs for integration: real work        1.189 s, elapsed        1.283 s
  Decreasing sparse matrix size:
  | Tolerance:  0.1000E-12
  Hamiltonian matrix
  | Array has    34792 nonzero elements out of    35625 elements
  | Sparsity factor is 0.023
  Overlap matrix
  | Array has    34342 nonzero elements out of    35625 elements
  | Sparsity factor is 0.036
  New size of hamiltonian matrix:       34793
  Deallocating overlap matrix.

  Updating Kohn-Sham eigenvalues and eigenvectors using ELSI and the ELPA eigensolver.
  Overlap matrix is not singular
  | Lowest and highest eigenvalues :  0.2145E-01,  0.3926E+01
  Finished singularity check of overlap matrix
  | Time :     0.010 s
  Starting ELPA eigensolver
  Finished Cholesky decomposition
  | Time :     0.004 s
  Finished transformation to standard eigenproblem
  | Time :     0.002 s
  Finished solving standard eigenproblem
  | Time :     0.009 s
  Finished back-transformation of eigenvectors
  | Time :     0.001 s

  Obtaining occupation numbers and chemical potential using ELSI.
  | Chemical potential (Fermi level):    -6.20967423 eV
  Writing Kohn-Sham eigenvalues.

  State    Occupation    Eigenvalue [Ha]    Eigenvalue [eV]
      1       2.00000        -466.345318       -12689.90175
      2       2.00000        -466.345315       -12689.90168
      3       2.00000        -466.345315       -12689.90168
      4       2.00000        -466.345315       -12689.90168
      5       2.00000        -466.345315       -12689.90168
      6       2.00000        -466.345315       -12689.90167
      7       2.00000        -466.345300       -12689.90126
      8       2.00000        -466.345298       -12689.90120
      9       2.00000         -59.210471        -1611.19890
     10       2.00000         -59.210469        -1611.19883
     11       2.00000         -59.210469        -1611.19883
     12       2.00000         -59.210469        -1611.19883
     13       2.00000         -59.210469        -1611.19883
     14       2.00000         -59.210469        -1611.19883
     15       2.00000         -59.210453        -1611.19841
     16       2.00000         -59.210451        -1611.19834
     17       2.00000         -52.069033        -1416.87048
     18       2.00000         -52.069030        -1416.87041
     19       2.00000         -52.069030        -1416.87041
     20       2.00000         -52.069030        -1416.87041
     21       2.00000         -52.069030        -1416.87040
     22       2.00000         -52.069030        -1416.87040
     23       2.00000         -52.069015        -1416.86998
     24       2.00000         -52.069013        -1416.86992
     25       2.00000         -52.068970        -1416.86877
     26       2.00000         -52.068968        -1416.86870
     27       2.00000         -52.068968        -1416.86870
     28       2.00000         -52.068968        -1416.86870
     29       2.00000         -52.068968        -1416.86870
     30       2.00000         -52.068968        -1416.86870
     31       2.00000         -52.068952        -1416.86828
     32       2.00000         -52.068950        -1416.86822
     33       2.00000         -52.068900        -1416.86686
     34       2.00000         -52.068898        -1416.86680
     35       2.00000         -52.068898        -1416.86680
     36       2.00000         -52.068898        -1416.86680
     37       2.00000         -52.068898        -1416.86680
     38       2.00000         -52.068898        -1416.86679
     39       2.00000         -52.068882        -1416.86638
     40       2.00000         -52.068880        -1416.86632
     41       2.00000          -7.856325         -213.78148
     42       2.00000          -7.856323         -213.78142
     43       2.00000          -7.856320         -213.78134
     44       2.00000          -7.856315         -213.78122
     45       2.00000          -7.856312         -213.78112
     46       2.00000          -7.856309         -213.78103
     47       2.00000          -7.856300         -213.78081
     48       2.00000          -7.856292         -213.78057
     49       2.00000          -5.631208         -153.23296
     50       2.00000          -5.631190         -153.23249
     51       2.00000          -5.631182         -153.23225
     52       2.00000          -5.631137         -153.23103
     53       2.00000          -5.631134         -153.23094
     54       2.00000          -5.631085         -153.22962
     55       2.00000          -5.631079         -153.22945
     56       2.00000          -5.631055         -153.22880
     57       2.00000          -5.630351         -153.20966
     58       2.00000          -5.630340         -153.20934
     59       2.00000          -5.630332         -153.20914
     60       2.00000          -5.630308         -153.20848
     61       2.00000          -5.630305         -153.20839
     62       2.00000          -5.630284         -153.20782
     63       2.00000          -5.630281         -153.20774
     64       2.00000          -5.630265         -153.20731
     65       2.00000          -5.629403         -153.18386
     66       2.00000          -5.629401         -153.18381
     67       2.00000          -5.629401         -153.18380
     68       2.00000          -5.629400         -153.18378
     69       2.00000          -5.629400         -153.18377
     70       2.00000          -5.629400         -153.18376
     71       2.00000          -5.629384         -153.18333
     72       2.00000          -5.629381         -153.18326
     73       2.00000          -1.965043          -53.47154
     74       2.00000          -1.964784          -53.46448
     75       2.00000          -1.964773          -53.46420
     76       2.00000          -1.964176          -53.44796
     77       2.00000          -1.964172          -53.44785
     78       2.00000          -1.963596          -53.43216
     79       2.00000          -1.963589          -53.43198
     80       2.00000          -1.963317          -53.42457
     81       2.00000          -1.962703          -53.40786
     82       2.00000          -1.962699          -53.40776
     83       2.00000          -1.962600          -53.40506
     84       2.00000          -1.962519          -53.40287
     85       2.00000          -1.962518          -53.40282
     86       2.00000          -1.961894          -53.38586
     87       2.00000          -1.961893          -53.38583
     88       2.00000          -1.961777          -53.38268
     89       2.00000          -1.961612          -53.37819
     90       2.00000          -1.961496          -53.37503
     91       2.00000          -1.961492          -53.37491
     92       2.00000          -1.961424          -53.37306
     93       2.00000          -1.961420          -53.37295
     94       2.00000          -1.961390          -53.37214
     95       2.00000          -1.961191          -53.36672
     96       2.00000          -1.961191          -53.36671
     97       2.00000          -1.960961          -53.36046
     98       2.00000          -1.960961          -53.36046
     99       2.00000          -1.960865          -53.35786
    100       2.00000          -1.960860          -53.35770
    101       2.00000          -1.960841          -53.35720
    102       2.00000          -1.960808          -53.35631
    103       2.00000          -1.960796          -53.35596
    104       2.00000          -1.960790          -53.35580
    105       2.00000          -1.960707          -53.35355
    106       2.00000          -1.960581          -53.35013
    107       2.00000          -1.960581          -53.35013
    108       2.00000          -1.960422          -53.34580
    109       2.00000          -1.960421          -53.34576
    110       2.00000          -1.960412          -53.34551
    111       2.00000          -1.960403          -53.34529
    112       2.00000          -1.960394          -53.34503
    113       2.00000          -0.762223          -20.74114
    114       2.00000          -0.740467          -20.14914
    115       2.00000          -0.740387          -20.14695
    116       2.00000          -0.682336          -18.56730
    117       2.00000          -0.682251          -18.56501
    118       2.00000          -0.607809          -16.53932
    119       2.00000          -0.607754          -16.53783
    120       2.00000          -0.566937          -15.42713
    121       2.00000          -0.385652          -10.49413
    122       2.00000          -0.378039          -10.28697
    123       2.00000          -0.378022          -10.28650
    124       2.00000          -0.345117           -9.39111
    125       2.00000          -0.337211           -9.17598
    126       2.00000          -0.337168           -9.17480
    127       2.00000          -0.322733           -8.78200
    128       2.00000          -0.322701           -8.78115
    129       2.00000          -0.291564           -7.93385
    130       2.00000          -0.257149           -6.99739
    131       2.00000          -0.257125           -6.99673
    132       2.00000          -0.245106           -6.66967
    133       2.00000          -0.245061           -6.66845
    134       2.00000          -0.239158           -6.50783
    135       2.00000          -0.239118           -6.50673
    136       2.00000          -0.238888           -6.50046
    137       0.00000          -0.139421           -3.79384
    138       0.00000          -0.139375           -3.79259
    139       0.00000          -0.129904           -3.53486
    140       0.00000          -0.100025           -2.72182
    141       0.00000          -0.099947           -2.71969
    142       0.00000          -0.093110           -2.53365
    143       0.00000          -0.093066           -2.53245
    144       0.00000          -0.091176           -2.48103
    145       0.00000           0.092204            2.50900
    146       0.00000           0.093668            2.54883
    147       0.00000           0.093714            2.55008
    148       0.00000           0.109078            2.96817
    149       0.00000           0.109095            2.96861
    150       0.00000           0.115908            3.15402
    151       0.00000           0.115922            3.15440
    152       0.00000           0.120780            3.28658
    153       0.00000           0.125021            3.40201
    154       0.00000           0.133652            3.63686
    155       0.00000           0.149693            4.07336
    156       0.00000           0.149707            4.07375
    157       0.00000           0.154428            4.20221
    158       0.00000           0.154458            4.20301
    159       0.00000           0.161271            4.38842
    160       0.00000           0.161324            4.38984
    161       0.00000           0.163448            4.44765
    162       0.00000           0.163471            4.44827
    163       0.00000           0.168200            4.57697
    164       0.00000           0.178599            4.85991
    165       0.00000           0.178629            4.86074
    166       0.00000           0.188831            5.13836
    167       0.00000           0.199881            5.43904
    168       0.00000           0.199953            5.44101
    169       0.00000           0.214767            5.84411
    170       0.00000           0.214773            5.84426
    171       0.00000           0.234678            6.38590
    172       0.00000           0.234693            6.38631
    173       0.00000           0.236137            6.42563
    174       0.00000           0.242549            6.60009
    175       0.00000           0.266845            7.26122
    176       0.00000           0.268820            7.31496
    177       0.00000           0.268946            7.31840
    178       0.00000           0.307997            8.38103
    179       0.00000           0.308024            8.38177
    180       0.00000           0.341485            9.29227

  Highest occupied state (VBM) at     -6.50046301 eV
  | Occupation number:      2.00000000

  Lowest unoccupied state (CBM) at    -3.79384152 eV
  | Occupation number:      0.00000000

  Overall HOMO-LUMO gap:      2.70662149 eV.
  Calculating total energy contributions from superposition of free atom densities.

  Total energy components:
  | Sum of eigenvalues            :      -11481.52506807 Ha     -312428.19327375 eV
  | XC energy correction          :        -705.40731361 Ha      -19195.10963964 eV
  | XC potential correction       :         917.88489425 Ha       24976.91878425 eV
  | Free-atom electrostatic energy:       -8295.40009263 Ha     -225729.32150181 eV
  | Hartree energy correction     :           0.00000000 Ha           0.00000000 eV
  | vdW energy correction         :           0.00000000 Ha           0.00000000 eV
  | Entropy correction            :           0.00000000 Ha           0.00000000 eV
  | ---------------------------
  | Total energy                  :      -19564.44758005 Ha     -532375.70563096 eV
  | Total energy, T -> 0          :      -19564.44758005 Ha     -532375.70563096 eV  <-- do not rely on this value for anything but (periodic) metals
  | Electronic free energy        :      -19564.44758005 Ha     -532375.70563096 eV

  Derived energy quantities:
  | Kinetic energy                :       19965.37533759 Ha      543285.50499805 eV
  | Electrostatic energy          :      -38824.41560404 Ha    -1056466.10098936 eV
  | Energy correction for multipole
  | error in Hartree potential    :           0.00000000 Ha           0.00000000 eV
  | Sum of eigenvalues per atom                           :      -39053.52415922 eV
  | Total energy (T->0) per atom                          :      -66546.96320387 eV  <-- do not rely on this value for anything but (periodic) metals
  | Electronic free energy per atom                       :      -66546.96320387 eV
  Initialize hartree_potential_storage
  Max. number of atoms included in rho_multipole:            8

  End scf initialization - timings             :  max(cpu_time)    wall_clock(cpu1)
  | Time for scf. initialization               :        0.316 s           0.319 s
  | Boundary condition initialization          :        0.000 s           0.000 s
  | Integration                                :        0.108 s           0.108 s
  | Solution of K.-S. eqns.                    :        0.030 s           0.030 s
  | Grid partitioning                          :        0.134 s           0.134 s
  | Preloading free-atom quantities on grid    :        0.033 s           0.032 s
  | Free-atom superposition energy             :        0.008 s           0.008 s
  | Total energy evaluation                    :        0.000 s           0.000 s

  Partial memory accounting:
  | Current value for overall tracked memory usage:
  |   Minimum:        0.808 MB (on task  7)
  |   Maximum:        0.843 MB (on task  0)
  |   Average:        0.815 MB
  | Peak value for overall tracked memory usage:
  |   Minimum:        2.403 MB (on task  8 after allocating wave)
  |   Maximum:        2.515 MB (on task  0 after allocating wave)
  |   Average:        2.438 MB
  | Largest tracked array allocation so far:
  |   Minimum:        0.374 MB (KS_eigenvector on task  2)
  |   Maximum:        1.370 MB (all_coords on task 21)
  |   Average:        0.479 MB
  Note:  These values currently only include a subset of arrays which are explicitly tracked.
  The "true" memory usage will be greater.
------------------------------------------------------------
  Evaluating new KS density.
  Integration grid: deviation in total charge (<rho> - N_e) =   1.136868E-13

  Time for density update prior                :  max(cpu_time)    wall_clock(cpu1)
  | self-consistency iterative process         :        0.079 s           0.079 s

------------------------------------------------------------
          Begin self-consistency iteration #    1

  Date     :  20210927, Time     :  130601.642
------------------------------------------------------------
  Pulay mixing of updated and previous charge densities.
  Renormalizing the density to the exact electron count on the 3D integration grid.
  | Formal number of electrons (from input files) :     272.0000000000
  | Integrated number of electrons on 3D grid     :     272.0000000000
  | Charge integration error                      :      -0.0000000000
  | Normalization factor for density and gradient :       1.0000000000

  Evaluating partitioned Hartree potential by multipole expansion.
  | Original multipole sum: apparent total charge =  -0.145260E-12
  | Sum of charges compensated after spline to logarithmic grids =   0.232370E-06
  | Analytical far-field extrapolation by fixed multipoles:
  | Hartree multipole sum: apparent total charge =  -0.145262E-12
  Summing up the Hartree potential.
  Time summed over all CPUs for potential: real work        1.090 s, elapsed        1.113 s
  | RMS charge density error from multipole expansion :   0.501535E-03

  Integrating Hamiltonian matrix: batch-based integration.
  Time summed over all CPUs for integration: real work        2.733 s, elapsed        2.850 s

  Updating Kohn-Sham eigenvalues and eigenvectors using ELSI and the ELPA eigensolver.
  Starting ELPA eigensolver
  Finished transformation to standard eigenproblem
  | Time :     0.002 s
  Finished solving standard eigenproblem
  | Time :     0.007 s
  Finished back-transformation of eigenvectors
  | Time :     0.001 s

  Obtaining occupation numbers and chemical potential using ELSI.
  | Chemical potential (Fermi level):    -6.15953742 eV
  Writing Kohn-Sham eigenvalues.

  State    Occupation    Eigenvalue [Ha]    Eigenvalue [eV]
      1       2.00000        -466.343073       -12689.84068
      2       2.00000        -466.343068       -12689.84053
      3       2.00000        -466.343067       -12689.84051
      4       2.00000        -466.343065       -12689.84045
      5       2.00000        -466.343064       -12689.84044
      6       2.00000        -466.343064       -12689.84042
      7       2.00000        -466.343052       -12689.84011
      8       2.00000        -466.343030       -12689.83949
      9       2.00000         -59.208307        -1611.14002
     10       2.00000         -59.208302        -1611.13988
     11       2.00000         -59.208302        -1611.13986
     12       2.00000         -59.208300        -1611.13981
     13       2.00000         -59.208299        -1611.13979
     14       2.00000         -59.208299        -1611.13978
     15       2.00000         -59.208286        -1611.13944
     16       2.00000         -59.208264        -1611.13885
     17       2.00000         -52.067020        -1416.81571
     18       2.00000         -52.067016        -1416.81558
     19       2.00000         -52.067015        -1416.81556
     20       2.00000         -52.067013        -1416.81550
     21       2.00000         -52.067012        -1416.81549
     22       2.00000         -52.067012        -1416.81547
     23       2.00000         -52.066999        -1416.81513
     24       2.00000         -52.066977        -1416.81454
     25       2.00000         -52.066872        -1416.81168
     26       2.00000         -52.066867        -1416.81155
     27       2.00000         -52.066866        -1416.81152
     28       2.00000         -52.066865        -1416.81147
     29       2.00000         -52.066864        -1416.81146
     30       2.00000         -52.066864        -1416.81145
     31       2.00000         -52.066851        -1416.81112
     32       2.00000         -52.066829        -1416.81051
     33       2.00000         -52.066485        -1416.80114
     34       2.00000         -52.066480        -1416.80100
     35       2.00000         -52.066479        -1416.80098
     36       2.00000         -52.066477        -1416.80093
     37       2.00000         -52.066476        -1416.80091
     38       2.00000         -52.066476        -1416.80090
     39       2.00000         -52.066464        -1416.80056
     40       2.00000         -52.066442        -1416.79997
     41       2.00000          -7.854215         -213.72406
     42       2.00000          -7.854213         -213.72401
     43       2.00000          -7.854210         -213.72392
     44       2.00000          -7.854205         -213.72380
     45       2.00000          -7.854200         -213.72366
     46       2.00000          -7.854197         -213.72359
     47       2.00000          -7.854188         -213.72332
     48       2.00000          -7.854166         -213.72273
     49       2.00000          -5.629575         -153.18854
     50       2.00000          -5.629558         -153.18807
     51       2.00000          -5.629547         -153.18777
     52       2.00000          -5.629504         -153.18659
     53       2.00000          -5.629497         -153.18641
     54       2.00000          -5.629452         -153.18518
     55       2.00000          -5.629444         -153.18496
     56       2.00000          -5.629417         -153.18424
     57       2.00000          -5.628482         -153.15879
     58       2.00000          -5.628471         -153.15850
     59       2.00000          -5.628463         -153.15827
     60       2.00000          -5.628440         -153.15765
     61       2.00000          -5.628433         -153.15745
     62       2.00000          -5.628414         -153.15693
     63       2.00000          -5.628410         -153.15683
[...]
    148       0.00000           0.119236            3.24458
    149       0.00000           0.119255            3.24509
    150       0.00000           0.126682            3.44719
    151       0.00000           0.126699            3.44765
    152       0.00000           0.131237            3.57115
    153       0.00000           0.134722            3.66596
    154       0.00000           0.147817            4.02229
    155       0.00000           0.160699            4.37285
    156       0.00000           0.160716            4.37331
    157       0.00000           0.165577            4.50557
    158       0.00000           0.165604            4.50632
    159       0.00000           0.171180            4.65805
    160       0.00000           0.171242            4.65974
    161       0.00000           0.176601            4.80555
    162       0.00000           0.176639            4.80659
    163       0.00000           0.185049            5.03544
    164       0.00000           0.191402            5.20832
    165       0.00000           0.191437            5.20926
    166       0.00000           0.199583            5.43092
    167       0.00000           0.214791            5.84477
    168       0.00000           0.214863            5.84672
    169       0.00000           0.225480            6.13562
    170       0.00000           0.225487            6.13582
    171       0.00000           0.246583            6.70986
    172       0.00000           0.246596            6.71021
    173       0.00000           0.248092            6.75093
    174       0.00000           0.254390            6.92230
    175       0.00000           0.280020            7.61974
    176       0.00000           0.281863            7.66990
    177       0.00000           0.281997            7.67354
    178       0.00000           0.321468            8.74760
    179       0.00000           0.321492            8.74823
    180       0.00000           0.355644            9.67757

  Highest occupied state (VBM) at     -6.00698344 eV
  | Occupation number:      2.00000000

  Lowest unoccupied state (CBM) at    -3.47204522 eV
  | Occupation number:      0.00000000

  Overall HOMO-LUMO gap:      2.53493821 eV.
  | Chemical Potential                          :    -5.82441967 eV

  Self-consistency cycle converged.


------------------------------------------------------------
  End self-consistency iteration #    13       :  max(cpu_time)    wall_clock(cpu1)
  | Time for this iteration                    :        0.678 s           0.679 s
  | Charge density & force component update    :        0.430 s           0.430 s
  | Density mixing                             :        0.005 s           0.004 s
  | Hartree multipole update                   :        0.003 s           0.003 s
  | Hartree multipole summation                :        0.095 s           0.094 s
  | Hartree pot. SCF incomplete forces         :        0.064 s           0.064 s
  | Integration                                :        0.072 s           0.072 s
  | Solution of K.-S. eqns.                    :        0.009 s           0.009 s
  | Total energy evaluation                    :        0.000 s           0.000 s

  Partial memory accounting:
  | Current value for overall tracked memory usage:
  |   Minimum:        0.813 MB (on task  7)
  |   Maximum:        0.848 MB (on task  0)
  |   Average:        0.820 MB
  | Peak value for overall tracked memory usage:
  |   Minimum:        4.344 MB (on task  8 after allocating hessian_basis_wave)
  |   Maximum:        4.523 MB (on task  0 after allocating hessian_basis_wave)
  |   Average:        4.404 MB
  | Largest tracked array allocation so far:
  |   Minimum:        1.885 MB (hessian_basis_wave on task  2)
  |   Maximum:        1.971 MB (hessian_basis_wave on task  0)
  |   Average:        1.916 MB
  Note:  These values currently only include a subset of arrays which are explicitly tracked.
  The "true" memory usage will be greater.
------------------------------------------------------------
  Obtaining max. number of non-zero basis functions in each batch .
  Evaluating KS electron density on previously omitted grid points.

  Entering Libmbd.
  Libmbd: VdW method: mbd-nl
  Libmbd: Evaluating kinetic energy density...

  Evaluating density matrix
  Finished density matrix calculation
  | Time :     0.001 s

  Libmbd: Performing Hirshfeld analysis...
  Libmbd: Calculating MBD energy...
  Libmbd: Evaluated energy: -0.11902372444609455E-001

  Leaving Libmbd.


  Total energy components:
  | Sum of eigenvalues            :      -11477.89984273 Ha     -312329.54587313 eV
  | XC energy correction          :        -705.50133433 Ha      -19197.66807374 eV
  | XC potential correction       :         918.00336495 Ha       24980.14253586 eV
  | Free-atom electrostatic energy:       -8295.40009263 Ha     -225729.32150181 eV
  | Hartree energy correction     :          -3.63599982 Ha         -98.94058926 eV
  | vdW energy correction         :          -0.01190237 Ha          -0.32388003 eV
  | Entropy correction            :          -0.00000000 Ha          -0.00000000 eV
  | ---------------------------
  | Total energy                  :      -19564.44580694 Ha     -532375.65738210 eV
  | Total energy, T -> 0          :      -19564.44580694 Ha     -532375.65738210 eV  <-- do not rely on this value for anything but (periodic) metals
  | Electronic free energy        :      -19564.44580694 Ha     -532375.65738210 eV

  Derived energy quantities:
  | Kinetic energy                :       19965.33022952 Ha      543284.27754507 eV
  | Electrostatic energy          :      -38824.26279976 Ha    -1056461.94297340 eV
  | Energy correction for multipole
  | error in Hartree potential    :          -0.00422770 Ha          -0.11504161 eV
  | Sum of eigenvalues per atom                           :      -39041.19323414 eV
  | Total energy (T->0) per atom                          :      -66546.95717276 eV  <-- do not rely on this value for anything but (periodic) metals
  | Electronic free energy per atom                       :      -66546.95717276 eV

  atomic forces [eV/Ang]:
  -----------------------
  atom #    1
   Hellmann-Feynman              :  0.273982E+02 -0.145681E+02  0.508844E+02
   Ionic forces                  :  0.000000E+00  0.000000E+00  0.000000E+00
   Multipole                     :  0.226243E-01 -0.477288E-02 -0.703898E-01
   Hartree pot. SCF incomplete   :  0.126343E-05  0.227430E-05 -0.205671E-04
   Pulay + GGA                   : -0.274101E+02  0.145591E+02 -0.508199E+02
   Van der Waals                 : -0.207645E-01  0.854824E-02 -0.959111E-03
   ----------------------------------------------------------------
   Total forces(   1)            : -0.100441E-01 -0.526130E-02 -0.684804E-02
  atom #    2
   Hellmann-Feynman              :  0.418445E+02  0.145564E+02 -0.400357E+02
   Ionic forces                  :  0.000000E+00  0.000000E+00  0.000000E+00
   Multipole                     :  0.419051E-03  0.514792E-02  0.740050E-01
   Hartree pot. SCF incomplete   : -0.419061E-05 -0.354434E-05  0.157758E-04
   Pulay + GGA                   : -0.418227E+02 -0.145531E+02  0.399663E+02
   Van der Waals                 : -0.200512E-01 -0.855805E-02 -0.552722E-02
   ----------------------------------------------------------------
   Total forces(   2)            :  0.223189E-02 -0.753788E-04 -0.924679E-03
  atom #    3
   Hellmann-Feynman              :  0.710708E+01  0.350622E+02  0.477496E+02
   Ionic forces                  :  0.000000E+00  0.000000E+00  0.000000E+00
   Multipole                     :  0.165897E-01  0.115676E-01 -0.713356E-01
   Hartree pot. SCF incomplete   :  0.319831E-05 -0.479254E-05 -0.206525E-04
   Pulay + GGA                   : -0.711508E+01 -0.350534E+02 -0.476779E+02
   Van der Waals                 : -0.881203E-02 -0.206727E-01  0.931896E-03
   ----------------------------------------------------------------
   Total forces(   3)            : -0.226186E-03 -0.253691E-03  0.125026E-02
  atom #    4
   Hellmann-Feynman              : -0.709506E+01  0.350498E+02 -0.477579E+02
   Ionic forces                  :  0.000000E+00  0.000000E+00  0.000000E+00
   Multipole                     : -0.165798E-01  0.116724E-01  0.712661E-01
   Hartree pot. SCF incomplete   :  0.153248E-06 -0.357111E-05  0.147462E-04
   Pulay + GGA                   :  0.710289E+01 -0.350416E+02  0.476875E+02
   Van der Waals                 :  0.881666E-02 -0.206595E-01 -0.935619E-03
   ----------------------------------------------------------------
   Total forces(   4)            :  0.753103E-04 -0.809442E-03 -0.728393E-04
  atom #    5
   Hellmann-Feynman              : -0.273689E+02 -0.145227E+02 -0.509825E+02
   Ionic forces                  :  0.000000E+00  0.000000E+00  0.000000E+00
   Multipole                     : -0.230313E-01 -0.495239E-02  0.702834E-01
   Hartree pot. SCF incomplete   :  0.164794E-05 -0.118763E-05  0.158567E-04
   Pulay + GGA                   :  0.273716E+02  0.145197E+02  0.509109E+02
   Van der Waals                 :  0.207551E-01  0.855995E-02  0.962373E-03
   ----------------------------------------------------------------
   Total forces(   5)            :  0.371314E-03  0.553545E-03 -0.340212E-03
  atom #    6
   Hellmann-Feynman              : -0.215933E+02 -0.350731E+02  0.431915E+02
   Ionic forces                  :  0.000000E+00  0.000000E+00  0.000000E+00
   Multipole                     :  0.683409E-02 -0.117917E-01 -0.730128E-01
   Hartree pot. SCF incomplete   :  0.424219E-05  0.253866E-05 -0.200130E-04
   Pulay + GGA                   :  0.215817E+02  0.350646E+02 -0.431215E+02
   Van der Waals                 :  0.811608E-02  0.206765E-01  0.362470E-02
   ----------------------------------------------------------------
   Total forces(   6)            :  0.333559E-02  0.393852E-03  0.535712E-03
  atom #    7
   Hellmann-Feynman              :  0.215858E+02 -0.350105E+02 -0.432019E+02
   Ionic forces                  :  0.000000E+00  0.000000E+00  0.000000E+00
   Multipole                     : -0.668186E-02 -0.120125E-01  0.727787E-01
   Hartree pot. SCF incomplete   : -0.442158E-05  0.435915E-05  0.167986E-04
   Pulay + GGA                   : -0.215663E+02  0.350070E+02  0.431389E+02
   Van der Waals                 : -0.809802E-02  0.206626E-01 -0.362387E-02
   ----------------------------------------------------------------
   Total forces(   7)            :  0.476455E-02  0.514117E-02  0.615414E-02
  atom #    8
   Hellmann-Feynman              : -0.418617E+02  0.145252E+02  0.399760E+02
   Ionic forces                  :  0.000000E+00  0.000000E+00  0.000000E+00
   Multipole                     : -0.169229E-03  0.503347E-02 -0.740822E-01
   Hartree pot. SCF incomplete   :  0.752786E-05 -0.308395E-05 -0.202812E-04
   Pulay + GGA                   :  0.418413E+02 -0.145214E+02 -0.399072E+02
   Van der Waals                 :  0.200380E-01 -0.855712E-02  0.552686E-02
   ----------------------------------------------------------------
   Total forces(   8)            : -0.513157E-03  0.232343E-03  0.251473E-03

  Timings for VdW correction (Tkatchenko-Scheffler 2009 or later):
  | CPU time:        0.141 s, Wall clock time:        0.141 s.
  Removing unitary transformations (pure translations, rotations) from forces on atoms.
  Atomic forces before filtering:
  | Net force on center of mass :  -0.483368E-05 -0.788996E-04  0.580684E-05 eV/A
  | Net torque on center of mass:   0.761128E-05 -0.251687E-03 -0.166848E-06 eV
  Atomic forces after filtering:
  | Net force on center of mass :  -0.235203E-17  0.126313E-17  0.130669E-17 eV/A
  | Net torque on center of mass:  -0.284654E-17  0.147513E-17  0.645370E-18 eV

  Energy and forces in a compact form:
  | Total energy uncorrected      :         -0.532375657382104E+06 eV
  | Total energy corrected        :         -0.532375657382104E+06 eV  <-- do not rely on this value for anything but (periodic) metals
  | Electronic free energy        :         -0.532375657382104E+06 eV
  Total atomic forces (unitary forces cleaned) [eV/Ang]:
  |    1         -0.100359535520055E-01         -0.525124477197678E-02         -0.686736808464550E-02
  |    2          0.223112630407716E-02         -0.655935631159668E-04         -0.945906390302036E-03
  |    3         -0.219768879073691E-03         -0.243669105825371E-03          0.124155919299481E-02
  |    4          0.701719518244948E-04         -0.799739594783023E-03         -0.667747629003021E-04
  |    5          0.364305260376156E-03          0.563213098423481E-03         -0.321859957903405E-03
  |    6          0.333936040734059E-02          0.403825641747080E-03          0.544390500537371E-03
  |    7          0.476191847830389E-02          0.515092579825117E-02          0.614519746196872E-02
  |    8         -0.511159970843152E-03          0.242282497279409E-03          0.270762040250343E-03

  ------------------------------------ 
  Start decomposition of the XC Energy 
  ------------------------------------ 
  X and C from original XC functional choice 
  Hartree-Fock Energy :          0.000000000 Ha              0.000000000 eV
  X Energy            :       -692.218968660 Ha         -18836.236514401 eV
  C Energy            :        -13.282365671 Ha           -361.431559334 eV
  Total XC Energy     :       -705.501334331 Ha         -19197.668073735 eV
  ------------------------------------ 
  LDA X and C from self-consistent density 
  X Energy LDA        :       -655.332588308 Ha         -17832.507035817 eV
  C Energy LDA        :        -24.583033414 Ha           -668.938374395 eV
  ------------------------------------ 
  End decomposition of the XC Energy 
  ------------------------------------ 

------------------------------------------------------------

------------------------------------------------------------------------------
  Final output of selected total energy values:

  The following output summarizes some interesting total energy values
  at the end of a run (AFTER all relaxation, molecular dynamics, etc.).

  | Total energy of the DFT / Hartree-Fock s.c.f. calculation      :        -532375.657382104 eV
  | Final zero-broadening corrected energy (caution - metals only) :        -532375.657382104 eV
  | For reference only, the value of 1 Hartree used in FHI-aims is :             27.211384500 eV

  Before relying on these values, please be sure to understand exactly which
  total energy value is referred to by a given number. Different objects may
  all carry the same name 'total energy'. Definitions:

  Total energy of the DFT / Hartree-Fock s.c.f. calculation:
  | Note that this energy does not include ANY quantities calculated after the
  | s.c.f. cycle, in particular not ANY RPA, MP2, etc. many-body perturbation terms.

  Final zero-broadening corrected energy:
  | For metallic systems only, a broadening of the occupation numbers at the Fermi
  | level can be extrapolated back to zero broadening by an electron-gas inspired
  | formula. For all systems that are not real metals, this value can be
  | meaningless and should be avoided.

------------------------------------------------------------------------------
  Methods described in the following list of references were used in this FHI-aims run.
  If you publish the results, please make sure to cite these reference if they apply.
  FHI-aims is an academic code, and for our developers (often, Ph.D. students
  and postdocs), scientific credit in the community is essential.
  Thank you for helping us!

  For any use of FHI-aims, please cite:

    Volker Blum, Ralf Gehrke, Felix Hanke, Paula Havu, Ville Havu,
    Xinguo Ren, Karsten Reuter, and Matthias Scheffler
    'Ab initio molecular simulations with numeric atom-centered orbitals'
    Computer Physics Communications 180, 2175-2196 (2009)
    http://dx.doi.org/10.1016/j.cpc.2009.06.022


  The ELSI infrastructure was used in your run to solve the Kohn-Sham electronic structure.
  Please check out http://elsi-interchange.org to learn more.
  If scalability is important for your project, please acknowledge ELSI by citing:

    V. W-z. Yu, F. Corsetti, A. Garcia, W. P. Huhn, M. Jacquelin, W. Jia,
    B. Lange, L. Lin, J. Lu, W. Mi, A. Seifitokaldani, A. Vazquez-Mayagoitia,
    C. Yang, H. Yang, and V. Blum
    'ELSI: A unified software interface for Kohn-Sham electronic structure solvers'
    Computer Physics Communications 222, 267-285 (2018).
    http://dx.doi.org/10.1016/j.cpc.2017.09.007


  For the real-space grid partitioning and parallelization used in this calculation, please cite:

    Ville Havu, Volker Blum, Paula Havu, and Matthias Scheffler,
    'Efficient O(N) integration for all-electron electronic structure calculation'
    'using numerically tabulated basis functions'
    Journal of Computational Physics 228, 8367-8379 (2009).
    http://dx.doi.org/10.1016/j.jcp.2009.08.008

  Of course, there are many other important community references, e.g., those cited in the
  above references. Our list is limited to references that describe implementations in the
  FHI-aims code. The reason is purely practical (length of this list) - please credit others as well.

------------------------------------------------------------
          Leaving FHI-aims.
          Date     :  20210927, Time     :  130604.812

          Computational steps:
          | Number of self-consistency cycles          :           13
          | Number of SCF (re)initializations          :            1

          Detailed time accounting                     :  max(cpu_time)    wall_clock(cpu1)
          | Total time                                 :        4.249 s           4.259 s
          | Preparation time                           :        0.629 s           0.629 s
          | Boundary condition initalization           :        0.000 s           0.000 s
          | Grid partitioning                          :        0.134 s           0.134 s
          | Preloading free-atom quantities on grid    :        0.033 s           0.032 s
          | Free-atom superposition energy             :        0.008 s           0.008 s
          | Total time for integrations                :        1.039 s           1.042 s
          | Total time for solution of K.-S. equations :        0.161 s           0.164 s
          | Total time for density & force components  :        1.415 s           1.419 s
          | Total time for mixing                      :        0.038 s           0.039 s
          | Total time for Hartree multipole update    :        0.036 s           0.035 s
          | Total time for Hartree multipole sum       :        0.438 s           0.437 s
          | Total time for total energy evaluation     :        0.005 s           0.001 s
          | Total time NSC force correction            :        0.064 s           0.064 s
          | Total time for scaled ZORA corrections     :        0.000 s           0.000 s
          | Total time for vdW correction              :        0.141 s           0.141 s

          Partial memory accounting:
          | Residual value for overall tracked memory usage across tasks:     0.000000 MB (should be 0.000000 MB)
          | Peak values for overall tracked memory usage:
          |   Minimum:        4.344 MB (on task  8 after allocating hessian_basis_wave)
          |   Maximum:        4.523 MB (on task  0 after allocating hessian_basis_wave)
          |   Average:        4.404 MB
          | Largest tracked array allocation:
          |   Minimum:        1.885 MB (hessian_basis_wave on task  2)
          |   Maximum:        1.971 MB (hessian_basis_wave on task  0)
          |   Average:        1.916 MB
          Note:  These values currently only include a subset of arrays which are explicitly tracked.
          The "true" memory usage will be greater.

          Have a nice day.
------------------------------------------------------------
