------------------------------------------------------------
          Invoking FHI-aims ...

          When using FHI-aims, please cite the following reference:

            Volker Blum, Ralf Gehrke, Felix Hanke, Paula Havu,
            Ville Havu, Xinguo Ren, Karsten Reuter, and Matthias Scheffler,
            'Ab Initio Molecular Simulations with Numeric Atom-Centered Orbitals',
            Computer Physics Communications 180, 2175-2196 (2009)

          In addition, many other developments in FHI-aims are likely important for
          your particular application. A partial list of references is given at the end of
          this file. Thank you for giving credit to the authors of these developments.

          For any questions about FHI-aims, please visit our slack channel at

            https://fhi-aims.slack.com

          and our main development and support site at

            https://aims-git.rz-berlin.mpg.de .

          The latter site, in particular, has a wiki to collect information, as well
          as an issue tracker to log discussions, suggest improvements, and report issues
          or bugs. https://aims-git.rz-berlin.mpg.de is also the main development site
          of the project and all new and updated code versions can be obtained there.
          Please send an email to aims-coordinators@fhi-berlin.mpg.de and we will add
          you to these sites. They are for you and everyone is welcome there.

------------------------------------------------------------



  Date     :  20210324, Time     :  142532.072
  Time zero on CPU 1             :   0.140571000000000E+00  s.
  Internal wall clock time zero  :           385827932.072  s.

  FHI-aims created a unique identifier for this run for later identification
  aims_uuid : 8A6402CE-BEBF-4B13-A877-06EF436DF130

  Build configuration of the current instance of FHI-aims
  -------------------------------------------------------
  FHI-aims version      : 210313
  Commit number         : f94121f93
  CMake host system     : Linux-4.12.14-122.57-default
  CMake version         : 3.5.2
  Fortran compiler      : /mpcdf/soft/SLE_12/packages/x86_64/intel_parallel_studio/2020.1/compilers_and_libraries_2020.1.217/linux/mpi/intel64/bin/mpiifort (Intel) version 19.1.0.20200306
  Fortran compiler flags: -O3 -ip -fp-model precise
  C compiler            : /mpcdf/soft/SLE_12/packages/x86_64/intel/19.1.1/bin/icc (Intel) version 19.1.0.20200306
  C compiler flags      : -O3 -ip -fp-model precise -std=gnu99
  C++ compiler          : /mpcdf/soft/SLE_12/packages/x86_64/intel/19.1.1/bin/icpc (Intel) version 19.1.0.20200306
  C++ compiler flags    : -O3 -ip -fp-model precise -std=gnu99
  Using MPI
  Using ScaLAPACK
  Using LibXC
  Using i-PI
  Using RLSY
  Linking against: /mpcdf/soft/SLE_12/packages/x86_64/intel_parallel_studio/2020.1/mkl/lib/intel64/libmkl_intel_lp64.so
                   /mpcdf/soft/SLE_12/packages/x86_64/intel_parallel_studio/2020.1/mkl/lib/intel64/libmkl_sequential.so
                   /mpcdf/soft/SLE_12/packages/x86_64/intel_parallel_studio/2020.1/mkl/lib/intel64/libmkl_core.so
                   /mpcdf/soft/SLE_12/packages/x86_64/intel_parallel_studio/2020.1/mkl/lib/intel64/libmkl_blacs_intelmpi_lp64.so
                   /mpcdf/soft/SLE_12/packages/x86_64/intel_parallel_studio/2020.1/mkl/lib/intel64/libmkl_scalapack_lp64.so

  Using      160 parallel tasks.
  Task        0 on host co4483 reporting.
  Task        1 on host co4483 reporting.
  Task        2 on host co4483 reporting.
  Task        3 on host co4483 reporting.
  Task        4 on host co4483 reporting.
  Task        5 on host co4483 reporting.
  Task        6 on host co4483 reporting.
  Task        7 on host co4483 reporting.
  Task        8 on host co4483 reporting.
  Task        9 on host co4483 reporting.
  Task       10 on host co4483 reporting.
  Task       11 on host co4483 reporting.
  Task       12 on host co4483 reporting.
  Task       13 on host co4483 reporting.
  Task       14 on host co4483 reporting.
  Task       15 on host co4483 reporting.
  Task       16 on host co4483 reporting.
  Task       17 on host co4483 reporting.
  Task       18 on host co4483 reporting.
  Task       19 on host co4483 reporting.
  Task       20 on host co4483 reporting.
  Task       21 on host co4483 reporting.
  Task       22 on host co4483 reporting.
  Task       23 on host co4483 reporting.
  Task       24 on host co4483 reporting.
  Task       25 on host co4483 reporting.
  Task       26 on host co4483 reporting.
  Task       27 on host co4483 reporting.
  Task       28 on host co4483 reporting.
  Task       29 on host co4483 reporting.
  Task       30 on host co4483 reporting.
  Task       31 on host co4483 reporting.
  Task       32 on host co4483 reporting.
  Task       33 on host co4483 reporting.
  Task       34 on host co4483 reporting.
  Task       35 on host co4483 reporting.
  Task       36 on host co4483 reporting.
  Task       37 on host co4483 reporting.
  Task       38 on host co4483 reporting.
  Task       39 on host co4483 reporting.
  Task       40 on host co4484 reporting.
  Task       41 on host co4484 reporting.
  Task       42 on host co4484 reporting.
  Task       43 on host co4484 reporting.
  Task       44 on host co4484 reporting.
  Task       45 on host co4484 reporting.
  Task       46 on host co4484 reporting.
  Task       47 on host co4484 reporting.
  Task       48 on host co4484 reporting.
  Task       49 on host co4484 reporting.
  Task       50 on host co4484 reporting.
  Task       51 on host co4484 reporting.
  Task       52 on host co4484 reporting.
  Task       53 on host co4484 reporting.
  Task       54 on host co4484 reporting.
  Task       55 on host co4484 reporting.
  Task       56 on host co4484 reporting.
  Task       57 on host co4484 reporting.
  Task       58 on host co4484 reporting.
  Task       59 on host co4484 reporting.
  Task       60 on host co4484 reporting.
  Task       61 on host co4484 reporting.
  Task       62 on host co4484 reporting.
  Task       63 on host co4484 reporting.
  Task       64 on host co4484 reporting.
  Task       65 on host co4484 reporting.
  Task       66 on host co4484 reporting.
  Task       67 on host co4484 reporting.
  Task       68 on host co4484 reporting.
  Task       69 on host co4484 reporting.
  Task       70 on host co4484 reporting.
  Task       71 on host co4484 reporting.
  Task       72 on host co4484 reporting.
  Task       73 on host co4484 reporting.
  Task       74 on host co4484 reporting.
  Task       75 on host co4484 reporting.
  Task       76 on host co4484 reporting.
  Task       77 on host co4484 reporting.
  Task       78 on host co4484 reporting.
  Task       79 on host co4484 reporting.
  Task       80 on host co4485 reporting.
  Task       81 on host co4485 reporting.
  Task       82 on host co4485 reporting.
  Task       83 on host co4485 reporting.
  Task       84 on host co4485 reporting.
  Task       85 on host co4485 reporting.
  Task       86 on host co4485 reporting.
  Task       87 on host co4485 reporting.
  Task       88 on host co4485 reporting.
  Task       89 on host co4485 reporting.
  Task       90 on host co4485 reporting.
  Task       91 on host co4485 reporting.
  Task       92 on host co4485 reporting.
  Task       93 on host co4485 reporting.
  Task       94 on host co4485 reporting.
  Task       95 on host co4485 reporting.
  Task       96 on host co4485 reporting.
  Task       97 on host co4485 reporting.
  Task       98 on host co4485 reporting.
  Task       99 on host co4485 reporting.
  Task      100 on host co4485 reporting.
  Task      101 on host co4485 reporting.
  Task      102 on host co4485 reporting.
  Task      103 on host co4485 reporting.
  Task      104 on host co4485 reporting.
  Task      105 on host co4485 reporting.
  Task      106 on host co4485 reporting.
  Task      107 on host co4485 reporting.
  Task      108 on host co4485 reporting.
  Task      109 on host co4485 reporting.
  Task      110 on host co4485 reporting.
  Task      111 on host co4485 reporting.
  Task      112 on host co4485 reporting.
  Task      113 on host co4485 reporting.
  Task      114 on host co4485 reporting.
  Task      115 on host co4485 reporting.
  Task      116 on host co4485 reporting.
  Task      117 on host co4485 reporting.
  Task      118 on host co4485 reporting.
  Task      119 on host co4485 reporting.
  Task      120 on host co4486 reporting.
  Task      121 on host co4486 reporting.
  Task      122 on host co4486 reporting.
  Task      123 on host co4486 reporting.
  Task      124 on host co4486 reporting.
  Task      125 on host co4486 reporting.
  Task      126 on host co4486 reporting.
  Task      127 on host co4486 reporting.
  Task      128 on host co4486 reporting.
  Task      129 on host co4486 reporting.
  Task      130 on host co4486 reporting.
  Task      131 on host co4486 reporting.
  Task      132 on host co4486 reporting.
  Task      133 on host co4486 reporting.
  Task      134 on host co4486 reporting.
  Task      135 on host co4486 reporting.
  Task      136 on host co4486 reporting.
  Task      137 on host co4486 reporting.
  Task      138 on host co4486 reporting.
  Task      139 on host co4486 reporting.
  Task      140 on host co4486 reporting.
  Task      141 on host co4486 reporting.
  Task      142 on host co4486 reporting.
  Task      143 on host co4486 reporting.
  Task      144 on host co4486 reporting.
  Task      145 on host co4486 reporting.
  Task      146 on host co4486 reporting.
  Task      147 on host co4486 reporting.
  Task      148 on host co4486 reporting.
  Task      149 on host co4486 reporting.
  Task      150 on host co4486 reporting.
  Task      151 on host co4486 reporting.
  Task      152 on host co4486 reporting.
  Task      153 on host co4486 reporting.
  Task      154 on host co4486 reporting.
  Task      155 on host co4486 reporting.
  Task      156 on host co4486 reporting.
  Task      157 on host co4486 reporting.
  Task      158 on host co4486 reporting.
  Task      159 on host co4486 reporting.

  Performing system and environment tests:
  | Environment variable OMP_NUM_THREADS correctly set to 1.
  | Checking for ScaLAPACK...
  | Testing pdtran()...
  | All pdtran() tests passed.

  Obtaining array dimensions for all initial allocations:
  
  -----------------------------------------------------------------------
  Parsing control.in (first pass over file, find array dimensions only).
  The contents of control.in will be repeated verbatim below
  unless switched off by setting 'verbatim_writeout .false.' .
  in the first line of control.in .
  -----------------------------------------------------------------------
  
  ##### Physical settings  ################
  xc                 pbe
  spin               none
  charge      0.0
  relativistic       atomic_zora scalar
  #elsi_restart read
  # SCF settings
  use_symmetric_forces .true.
  relax_geometry trm 1E-3
  
  #relax_unit_cell full
  
  
  
  #vdw_correction_hirshfeld
  harmonic_length_scale 0.09
  energy_tolerance  1E-3
  occupation_type gaussian       0.01
  # k-grid settings  (to be adjusted)
  k_grid  2 2 1
  #empty_states 8
  use_dipole_correction
  #include_spin_orbit non_self_consistent
  
  output cube stm -0.5
  mixer   pulay
  n_max_pulay        12 # high for metal
  charge_mix_param   0.1 #low for metal
  #output cube stm -0.5
  #many_body_dispersion_nl    beta=0.81 do_rpa=.true. rpa_rescale_eigs=.true. parallel_mode=k_points
  ################################################################################
  #
  #  FHI-aims code project
  # Volker Blum, Fritz Haber Institute Berlin, 2009
  #
  #  Suggested "tight" defaults for S atom (to be pasted into control.in file)
  #
  #  Revised Jan 04, 2011, following tests (SiC) done by Lydia Nemec:
  #     d and g functions of tier 2 now enabled by default.
  #
  ################################################################################
    species        S
  #     global species definitions
      nucleus             16
      mass                32.065
  #
      l_hartree           6
  #
      cut_pot             4.0          2.0  1.0
      basis_dep_cutoff    1e-4
  #
      radial_base         44 7.0
      radial_multiplier   2
      angular_grids       specified
        division   0.4665  110
        division   0.5810  194
        division   0.7139  302
        division   0.8274  434
  #      division   0.9105  590
  #      division   1.0975  770
  #      division   1.2028  974
  #      outer_grid  974
        outer_grid  434
  ################################################################################
  #
  #  Definition of "minimal" basis
  #
  ################################################################################
  #     valence basis states
      valence      3  s   2.
      valence      3  p   4.
  #     ion occupancy
      ion_occ      3  s   1.
      ion_occ      3  p   3.
  ################################################################################
  #
  #  Suggested additional basis functions. For production calculations,
  #  uncomment them one after another (the most important basis functions are
  #  listed first).
  #
  #  Constructed for dimers: 1.6 A, 1.9 A, 2.5 A, 3.25 A, 4.0 A
  #
  ################################################################################
  #  "First tier" - improvements: -652.81 meV to -45.53 meV
       ionic 3 d auto
       hydro 2 p 1.8
       hydro 4 f 7
       ionic 3 s auto
  #  "Second tier" - improvements: -30.20 meV to -1.74 meV
       hydro 4 d 6.2
       hydro 5 g 10.8
  #     hydro 4 p 4.9
  #     hydro 5 f 10
  #     hydro 1 s 0.8
  #  "Third tier" - improvements: -1.04 meV to -0.20 meV
  #     hydro 3 d 3.9
  #     hydro 3 d 2.7
  #     hydro 5 g 12
  #     hydro 4 p 10.4
  #     hydro 5 f 12.4
  #     hydro 2 s 1.9
  #  "Fourth tier" - improvements: -0.35 meV to -0.06 meV
  #     hydro 4 d 10.4
  #     hydro 4 p 7.2
  #     hydro 4 d 10
  #     hydro 5 g 19.2
  #     hydro 4 s 12
  
  ################################################################################
  #
  # For methods that use the localized form of the "resolution of identity" for
  # the two-electron Coulomb operator (RI_method LVL), particularly Hartree-Fock and
  # hybrid density functional calculations, the highest accuracy can be obtained by
  # uncommenting the line beginning with "for_aux"  below, thus adding an extra g radial
  # function to the construction of the product basis set for the expansion.
  # See Ref. New J. Phys. 17, 093020 (2015) for more information, particularly Figs. 1 and 6.
  #
  ################################################################################
  #
  # for_aux hydro 5 g 6.0
  ################################################################################
  #
  #  FHI-aims code project
  # Volker Blum, Fritz Haber Institute Berlin, 2009
  #
  #  Suggested "tight" defaults for Mo atom (to be pasted into control.in file)
  #
  ################################################################################
    species        Mo
  #     global species definitions
      nucleus             42
      mass                95.94
  #
      l_hartree           6
  #
      cut_pot             4.0  2.0  1.0
      basis_dep_cutoff    1e-4
  #
      radial_base         59 7.0
      radial_multiplier   2
      angular_grids specified
        division   0.3117   50
        division   0.6750  110
        division   1.0351  194
        division   1.2073  302
        division   1.6402  434
  #      division   1.9185  590
  #      division   2.0237  770
  #      division   2.0980  974
  #      division   2.7972 1202
  #      outer_grid  974
        outer_grid  434
  ################################################################################
  #
  #  Definition of "minimal" basis
  #
  ################################################################################
  #     valence basis states
      valence      5  s   1.
      valence      4  p   6.
      valence      4  d   5.
  #     ion occupancy
      ion_occ     5  s   0.
      ion_occ     4  p   6.
      ion_occ     4  d   4.
  ################################################################################
  #
  #  Suggested additional basis functions. For production calculations,
  #  uncomment them one after another (the most important basis functions are
  #  listed first).
  #
  #  Constructed for dimers: 1.675 A, 1.9 A, 2.375 A, 3.00 A, 4.00 A
  #
  ################################################################################
  #  "First tier"  - max. impr. -711.23  meV, min. impr. -21.07 meV
       hydro 4 f 8.4
       hydro 3 d 2.8
       ionic 5 p auto
       hydro 5 g 12
       ionic 5 s auto
  #  "Second tier" - max. impr. -39.38  meV, min. impr. -2.68 meV
  #     hydro 4 f 12.4
  #     hydro 3 d 3.3
  #     hydro 6 h 17.2
  #     hydro 4 f 7.6
  #     hydro 3 p 3.0
  #     hydro 1 s 0.65
  #  "Third tier"  - max. impr. -5.50 meV, min. impr. -0.47 meV
  #     hydro 4 f 29.2
  #     hydro 5 g 11.2
  #     hydro 3 d 6.8
  #     hydro 6 h 14.8
  #     hydro 2 p 2.3
  #     hydro 4 s 3.8
  #  "Fourth tier"  - max. impr. -0.58 meV, min. impr. -0.19 meV
  #     hydro 5 f 6.8
  #     hydro 5 d 14.8
  #     hydro 6 s 7.8
  #     hydro 5 g 20.8
  #     hydro 5 d 10.4
  #     hydro 5 p 9.8
  #  Further functions - -0.17 meV and below
  #     hydro 5 d 3.2
  
  -----------------------------------------------------------------------
  Completed first pass over input file control.in .
  -----------------------------------------------------------------------
  
  
  -----------------------------------------------------------------------
  Parsing geometry.in (first pass over file, find array dimensions only).
  The contents of geometry.in will be repeated verbatim below
  unless switched off by setting 'verbatim_writeout .false.' .
  in the first line of geometry.in .
  -----------------------------------------------------------------------
  
  #
  # This is the geometry file that corresponds to the current relaxation step.
  # If you do not want this file to be written, set the "write_restart_geometry" flag to .false.
  #  aims_uuid : 84692A7A-746C-450B-A59D-5B3399D41432
  #
    set_vacuum_level        53.072500
  lattice_vector     15.90000000      0.00000000      0.00000000
  lattice_vector     -7.95000000     13.76980390      0.00000000
  lattice_vector      0.00000000      0.00000000    100.00000000
  atom       1.59613822      0.92191913      3.07250000 Mo
  atom       0.00000973      1.83920609      4.63547536 S
  atom       0.00000973      1.83920609      1.50952464 S
  atom      -0.00002290      3.67479305      3.07250000 Mo
  atom      -1.61356553      4.58352619      4.63399983 S
  atom      -1.61356553      4.58352619      1.51100017 S
  atom      -1.60497560      6.41751176      3.07250000 Mo
  atom      -3.20896606      7.32757763      4.62985078 S
  atom      -3.20896606      7.32757763      1.51514922 S
  atom      -3.19514608      9.17169361      3.07250000 Mo
  atom      -4.78771013     10.08126807      4.63399491 S
  atom      -4.78771013     10.08126807      1.51100509 S
  atom      -4.76790407     11.93299347      3.07250000 Mo
  atom      -6.35755299     12.85081243      4.63548619 S
  atom      -6.35755299     12.85081243      1.50951381 S
  atom       4.78952178      0.95530264      3.07250000 Mo
  atom       3.19356093      1.84419301      4.63592842 S
  atom       3.19356093      1.84419301      1.50907158 S
  atom       3.22179902      3.67077445      3.07250000 Mo
  atom       1.61355273      4.58349915      4.63399001 S
  atom       1.61355273      4.58349915      1.51100999 S
  atom       1.60498546      6.41749764      3.07250000 Mo
  atom       0.00000267      7.33690778      4.63059148 S
  atom       0.00000267      7.33690778      1.51440852 S
  atom      -0.00000106      9.18026067      3.07250000 Mo
  atom      -1.59640911     10.10192597      4.63059396 S
  atom      -1.59640911     10.10192597      1.51440604 S
  atom      -1.59014900     11.95155292      3.07250000 Mo
  atom      -3.17414171     12.87599276      4.63399141 S
  atom      -3.17414171     12.87599276      1.51100859 S
  atom       7.95000042      0.98013150      3.07250000 Mo
  atom       6.40434524      1.94733489      4.63295388 S
  atom       6.40434524      1.94733489      1.51204612 S
  atom       6.51224305      3.76016089      3.07250000 Mo
  atom       4.88837837      4.57319248      4.63294762 S
  atom       4.88837837      4.57319248      1.51205238 S
  atom       4.82359510      6.39537601      3.07250000 Mo
  atom       3.20896959      7.32758424      4.62984024 S
  atom       3.20896959      7.32758424      1.51515976 S
  atom       3.19512573      9.17171104      3.07250000 Mo
  atom       1.59640676     10.10193372      4.63058991 S
  atom       1.59640676     10.10193372      1.51441009 S
  atom       1.59015597     11.95157923      3.07250000 Mo
  atom      -0.00000178     12.88557681      4.62985516 S
  atom      -0.00000178     12.88557681      1.51514484 S
  atom      11.11048378      0.95527753      3.07250000 Mo
  atom       9.49566275      1.94733041      4.63295088 S
  atom       9.49566275      1.94733041      1.51204912 S
  atom       9.38772961      3.76016832      3.07250000 Mo
  atom       7.94999313      6.25043694      3.07250000 Mo
  atom       6.43402529      7.25035618      4.63295041 S
  atom       6.43402529      7.25035618      1.51204959 S
  atom       6.38226807      9.14486069      3.07250000 Mo
  atom       4.78771138     10.08126925      4.63399309 S
  atom       4.78771138     10.08126925      1.51100691 S
  atom       4.76790696     11.93299860      3.07250000 Mo
  atom       3.17414680     12.87597647      4.63401209 S
  atom       3.17414680     12.87597647      1.51098791 S
  atom      14.30386802      0.92193416      3.07250000 Mo
  atom      12.70642906      1.84419272      4.63592777 S
  atom      12.70642906      1.84419272      1.50907223 S
  atom      12.67821622      3.67076640      3.07250000 Mo
  atom      11.01163310      4.57319405      4.63294551 S
  atom      11.01163310      4.57319405      1.51205449 S
  atom      11.07642042      6.39537068      3.07250000 Mo
  atom       9.46597414      7.25035016      4.63293443 S
  atom       9.46597414      7.25035016      1.51206557 S
  atom       9.51771058      9.14487538      3.07250000 Mo
  atom       7.94999249     10.08263404      4.63593337 S
  atom       7.94999249     10.08263404      1.50906663 S
  atom       7.95001044     11.92716009      3.07250000 Mo
  atom       6.35755964     12.85081214      4.63547342 S
  atom       6.35755964     12.85081214      1.50952658 S
  
  -----------------------------------------------------------------------
  Completed first pass over input file geometry.in .
  -----------------------------------------------------------------------
  

  Basic array size parameters:
  | Number of species                 :        2
  | Number of atoms                   :       73
  | Number of lattice vectors         :        3
  | Max. basis fn. angular momentum   :        4
  | Max. atomic/ionic basis occupied n:        5
  | Max. number of basis fn. types    :        3
  | Max. radial fns per species/type  :       10
  | Max. logarithmic grid size        :     1436
  | Max. radial integration grid size :      119
  | Max. angular integration grid size:      434
  | Max. angular grid division number :        8
  | Radial grid for Hartree potential :     1436
  | Number of spin channels           :        1
  | Cube type output requested        :        1

------------------------------------------------------------
          Reading file control.in.
------------------------------------------------------------
  XC: Using PBE gradient-corrected functionals.
  Spin treatment: No spin polarisation.
  Charge =   0.000000E+00: Neutral system requested explicitly.
  Scalar relativistic treatment of kinetic energy: on-site free-atom approximation to ZORA.
  Geometry relaxation: Modified BFGS - TRM (trust radius method) for lattice optimization.
  Convergence accuracy for geometry relaxation: Maximum force <   0.100000E-02 eV/A.
  Assuming qualitatively harmonic for steps shorter than   0.900000E-01 A.
  Max energy increase before discarding BFGS move:   0.100000E-02 eV
  Occupation type: Gaussian broadening, width =   0.100000E-01 eV.
  Found k-point grid:         2         2         1
  Using dipole correction.
  | STM width in eV:      -0.5000
  | Cube output options:
 * Cube origin was not provided following cube request. Will be using default value.
 * Cube edges were not provided following cube request. Defaults will be used.
 Standard cube format requested.

  Using pulay charge density mixing.
  Pulay mixing - number of memorized iterations:   12
  Charge density mixing - mixing parameter:     0.1000
 
  Reading configuration options for species S                   .
  | Found nuclear charge :  16.0000
  | Found atomic mass :    32.0650000000000      amu
  | Found l_max for Hartree potential  :   6
  | Found cutoff potl. onset [A], width [A], scale factor :    4.00000    2.00000    1.00000
  | Threshold for basis-dependent cutoff potential is   0.100000E-03
  | Found data for basic radial integration grid :    44 points, outermost radius =    7.000 A
  | Found multiplier for basic radial grid :   2
  | Found angular grid specification: user-specified.
  | Specified grid contains     5 separate shells.
  | Check grid settings after all constraints further below.
  | Found free-atom valence shell :  3 s   2.000
  | Found free-atom valence shell :  3 p   4.000
  | Found free-ion valence shell :  3 s   1.000
  | Found free-ion valence shell :  3 p   3.000
  | Found ionic basis function :  3 d , default cutoff radius.
  | Found hydrogenic basis function :  2 p   1.800
  | Found hydrogenic basis function :  4 f   7.000
  | Found ionic basis function :  3 s , default cutoff radius.
  | Found hydrogenic basis function :  4 d   6.200
  | Found hydrogenic basis function :  5 g  10.800
  Species S                   : Missing cutoff potential type.
  Defaulting to exp(1/x)/(1-x)^2 type cutoff potential.
  Species S : No 'logarithmic' tag. Using default grid for free atom:
  | Default logarithmic grid data [bohr] : 0.1000E-03 0.1000E+03 0.1012E+01
  | Will include ionic basis functions of  2.0-fold positive S                    ion.
  Species S : On-site basis accuracy parameter (for Gram-Schmidt orthonormalisation) not specified.
  Using default value basis_acc =  0.1000000E-03.
  Species S                   : Using default innermost maximum threshold i_radial=  2 for radial functions.
  Species S                   : Default cutoff onset for free atom density etc. : 0.40000000E+01 AA.
  Species S                   : Basic radial grid will be enhanced according to radial_multiplier =   2, to contain    89 grid points.
 
  Reading configuration options for species Mo                  .
  | Found nuclear charge :  42.0000
  | Found atomic mass :    95.9400000000000      amu
  | Found l_max for Hartree potential  :   6
  | Found cutoff potl. onset [A], width [A], scale factor :    4.00000    2.00000    1.00000
  | Threshold for basis-dependent cutoff potential is   0.100000E-03
  | Found data for basic radial integration grid :    59 points, outermost radius =    7.000 A
  | Found multiplier for basic radial grid :   2
  | Found angular grid specification: user-specified.
  | Specified grid contains     6 separate shells.
  | Check grid settings after all constraints further below.
  | Found free-atom valence shell :  5 s   1.000
  | Found free-atom valence shell :  4 p   6.000
  | Found free-atom valence shell :  4 d   5.000
  | Found free-ion valence shell :  5 s   0.000
  | Found free-ion valence shell :  4 p   6.000
  | Found free-ion valence shell :  4 d   4.000
  | Found hydrogenic basis function :  4 f   8.400
  | Found hydrogenic basis function :  3 d   2.800
  | Found ionic basis function :  5 p , default cutoff radius.
  | Found hydrogenic basis function :  5 g  12.000
  | Found ionic basis function :  5 s , default cutoff radius.
  Species Mo                  : Missing cutoff potential type.
  Defaulting to exp(1/x)/(1-x)^2 type cutoff potential.
  Species Mo: No 'logarithmic' tag. Using default grid for free atom:
  | Default logarithmic grid data [bohr] : 0.1000E-03 0.1000E+03 0.1012E+01
  | Will include ionic basis functions of  2.0-fold positive Mo                   ion.
  Species Mo: On-site basis accuracy parameter (for Gram-Schmidt orthonormalisation) not specified.
  Using default value basis_acc =  0.1000000E-03.
  Species Mo                  : Using default innermost maximum threshold i_radial=  2 for radial functions.
  Species Mo                  : Default cutoff onset for free atom density etc. : 0.40000000E+01 AA.
  Species Mo                  : Basic radial grid will be enhanced according to radial_multiplier =   2, to contain   119 grid points.
 
  Finished reading input file 'control.in'.
 
------------------------------------------------------------


------------------------------------------------------------
          Reading geometry description geometry.in.
------------------------------------------------------------
  Vacuum level in z-axis :   0.530725E+02
  | The smallest distance between any two atoms is         2.39435871 AA.
  | The first atom of this pair is atom number                     34 .
  | The second atom of this pair is atom number                    35 .
  | Wigner-Seitz cell of the first atom image           1     0     0 .
  | (The Wigner-Seitz cell of the second atom is 0 0 0  by definition.)

  Symmetry information by spglib:
  | Precision set to  0.1E-04
  | Number of Operations  : 2
  | Space group           : 6
  | International         : Pm 4
  | Schoenflies           : Cs^1
  Input structure read successfully.
  The structure contains       73 atoms,  and a total of       1818.000 electrons.

  Input geometry:
  | Unit cell:
  |       15.90000000        0.00000000        0.00000000
  |       -7.95000000       13.76980390        0.00000000
  |        0.00000000        0.00000000      100.00000000
  | Atomic structure:
  |       Atom                x [A]            y [A]            z [A]
  |    1: Species Mo            1.59613822        0.92191913        3.07250000
  |    2: Species S             0.00000973        1.83920609        4.63547536
  |    3: Species S             0.00000973        1.83920609        1.50952464
  |    4: Species Mo           -0.00002290        3.67479305        3.07250000
  |    5: Species S            -1.61356553        4.58352619        4.63399983
  |    6: Species S            -1.61356553        4.58352619        1.51100017
  |    7: Species Mo           -1.60497560        6.41751176        3.07250000
  |    8: Species S            -3.20896606        7.32757763        4.62985078
  |    9: Species S            -3.20896606        7.32757763        1.51514922
  |   10: Species Mo           -3.19514608        9.17169361        3.07250000
  |   11: Species S            -4.78771013       10.08126807        4.63399491
  |   12: Species S            -4.78771013       10.08126807        1.51100509
  |   13: Species Mo           -4.76790407       11.93299347        3.07250000
  |   14: Species S            -6.35755299       12.85081243        4.63548619
  |   15: Species S            -6.35755299       12.85081243        1.50951381
  |   16: Species Mo            4.78952178        0.95530264        3.07250000
  |   17: Species S             3.19356093        1.84419301        4.63592842
  |   18: Species S             3.19356093        1.84419301        1.50907158
  |   19: Species Mo            3.22179902        3.67077445        3.07250000
  |   20: Species S             1.61355273        4.58349915        4.63399001
  |   21: Species S             1.61355273        4.58349915        1.51100999
  |   22: Species Mo            1.60498546        6.41749764        3.07250000
  |   23: Species S             0.00000267        7.33690778        4.63059148
  |   24: Species S             0.00000267        7.33690778        1.51440852
  |   25: Species Mo           -0.00000106        9.18026067        3.07250000
  |   26: Species S            -1.59640911       10.10192597        4.63059396
  |   27: Species S            -1.59640911       10.10192597        1.51440604
  |   28: Species Mo           -1.59014900       11.95155292        3.07250000
  |   29: Species S            -3.17414171       12.87599276        4.63399141
  |   30: Species S            -3.17414171       12.87599276        1.51100859
  |   31: Species Mo            7.95000042        0.98013150        3.07250000
  |   32: Species S             6.40434524        1.94733489        4.63295388
  |   33: Species S             6.40434524        1.94733489        1.51204612
  |   34: Species Mo            6.51224305        3.76016089        3.07250000
  |   35: Species S             4.88837837        4.57319248        4.63294762
  |   36: Species S             4.88837837        4.57319248        1.51205238
  |   37: Species Mo            4.82359510        6.39537601        3.07250000
  |   38: Species S             3.20896959        7.32758424        4.62984024
  |   39: Species S             3.20896959        7.32758424        1.51515976
  |   40: Species Mo            3.19512573        9.17171104        3.07250000
  |   41: Species S             1.59640676       10.10193372        4.63058991
  |   42: Species S             1.59640676       10.10193372        1.51441009
  |   43: Species Mo            1.59015597       11.95157923        3.07250000
  |   44: Species S            -0.00000178       12.88557681        4.62985516
  |   45: Species S            -0.00000178       12.88557681        1.51514484
  |   46: Species Mo           11.11048378        0.95527753        3.07250000
  |   47: Species S             9.49566275        1.94733041        4.63295088
  |   48: Species S             9.49566275        1.94733041        1.51204912
  |   49: Species Mo            9.38772961        3.76016832        3.07250000
  |   50: Species Mo            7.94999313        6.25043694        3.07250000
  |   51: Species S             6.43402529        7.25035618        4.63295041
  |   52: Species S             6.43402529        7.25035618        1.51204959
  |   53: Species Mo            6.38226807        9.14486069        3.07250000
  |   54: Species S             4.78771138       10.08126925        4.63399309
  |   55: Species S             4.78771138       10.08126925        1.51100691
  |   56: Species Mo            4.76790696       11.93299860        3.07250000
  |   57: Species S             3.17414680       12.87597647        4.63401209
  |   58: Species S             3.17414680       12.87597647        1.51098791
  |   59: Species Mo           14.30386802        0.92193416        3.07250000
  |   60: Species S            12.70642906        1.84419272        4.63592777
  |   61: Species S            12.70642906        1.84419272        1.50907223
  |   62: Species Mo           12.67821622        3.67076640        3.07250000
  |   63: Species S            11.01163310        4.57319405        4.63294551
  |   64: Species S            11.01163310        4.57319405        1.51205449
  |   65: Species Mo           11.07642042        6.39537068        3.07250000
  |   66: Species S             9.46597414        7.25035016        4.63293443
  |   67: Species S             9.46597414        7.25035016        1.51206557
  |   68: Species Mo            9.51771058        9.14487538        3.07250000
  |   69: Species S             7.94999249       10.08263404        4.63593337
  |   70: Species S             7.94999249       10.08263404        1.50906663
  |   71: Species Mo            7.95001044       11.92716009        3.07250000
  |   72: Species S             6.35755964       12.85081214        4.63547342
  |   73: Species S             6.35755964       12.85081214        1.50952658

  Lattice parameters for 3D lattice (in Angstroms) :    15.900000   15.900000  100.000000
  Angle(s) between unit vectors (in degrees)       :    90.000000   90.000000  120.000000


  Quantities derived from the lattice vectors:
  | Reciprocal lattice vector 1:  0.395169  0.228151  0.000000
  | Reciprocal lattice vector 2: -0.000000  0.456302  0.000000
  | Reciprocal lattice vector 3:  0.000000  0.000000  0.062832
  | Unit cell volume                               :   0.218940E+05  A^3

  Fractional coordinates:
                         L1                L2                L3
       atom_frac         0.13386217        0.06695223        0.03072500  Mo
       atom_frac         0.06678465        0.13356807        0.04635475  S
       atom_frac         0.06678465        0.13356807        0.01509525  S
       atom_frac         0.13343521        0.26687330        0.03072500  Mo
       atom_frac         0.06495186        0.33286794        0.04634000  S
       atom_frac         0.06495186        0.33286794        0.01511000  S
       atom_frac         0.13208658        0.46605687        0.03072500  Mo
       atom_frac         0.06425238        0.53214829        0.04629851  S
       atom_frac         0.06425238        0.53214829        0.01515149  S
       atom_frac         0.13208388        0.66607293        0.03072500  Mo
       atom_frac         0.06495049        0.73212866        0.04633995  S
       atom_frac         0.06495049        0.73212866        0.01511005  S
       atom_frac         0.13343478        0.86660591        0.03072500  Mo
       atom_frac         0.06678409        0.93326038        0.04635486  S
       atom_frac         0.06678409        0.93326038        0.01509514  S
       atom_frac         0.33591610        0.06937663        0.03072500  Mo
       atom_frac         0.26781800        0.13393023        0.04635928  S
       atom_frac         0.26781800        0.13393023        0.01509072  S
       atom_frac         0.33591960        0.26658146        0.03072500  Mo
       atom_frac         0.26791429        0.33286597        0.04633990  S
       atom_frac         0.26791429        0.33286597        0.01511010  S
       atom_frac         0.33397041        0.46605585        0.03072500  Mo
       atom_frac         0.26641310        0.53282587        0.04630591  S
       atom_frac         0.26641310        0.53282587        0.01514409  S
       atom_frac         0.33334748        0.66669509        0.03072500  Mo
       atom_frac         0.26641136        0.73362889        0.04630594  S
       atom_frac         0.26641136        0.73362889        0.01514406  S
       atom_frac         0.33396750        0.86795375        0.03072500  Mo
       atom_frac         0.26791297        0.93508904        0.04633991  S
       atom_frac         0.26791297        0.93508904        0.01511009  S
       atom_frac         0.53558991        0.07117977        0.03072500  Mo
       atom_frac         0.47349934        0.14142067        0.04632954  S
       atom_frac         0.47349934        0.14142067        0.01512046  S
       atom_frac         0.54611151        0.27307294        0.03072500  Mo
       atom_frac         0.47350392        0.33211747        0.04632948  S
       atom_frac         0.47350392        0.33211747        0.01512052  S
       atom_frac         0.53559542        0.46444932        0.03072500  Mo
       atom_frac         0.46789637        0.53214877        0.04629840  S
       atom_frac         0.46789637        0.53214877        0.01515160  S
       atom_frac         0.53398840        0.66607419        0.03072500  Mo
       atom_frac         0.46721767        0.73362945        0.04630590  S
       atom_frac         0.46721767        0.73362945        0.01514410  S
       atom_frac         0.53398764        0.86795566        0.03072500  Mo
       atom_frac         0.46789242        0.93578506        0.04629855  S
       atom_frac         0.46789242        0.93578506        0.01515145  S
       atom_frac         0.73345997        0.06937481        0.03072500  Mo
       atom_frac         0.66792167        0.14142034        0.04632951  S
       atom_frac         0.66792167        0.14142034        0.01512049  S
       atom_frac         0.72695999        0.27307348        0.03072500  Mo
       atom_frac         0.72696129        0.45392345        0.03072500  Mo
       atom_frac         0.66792581        0.52654026        0.04632950  S
       atom_frac         0.66792581        0.52654026        0.01512050  S
       atom_frac         0.73346263        0.66412425        0.03072500  Mo
       atom_frac         0.66717830        0.73212875        0.04633993  S
       atom_frac         0.66717830        0.73212875        0.01511007  S
       atom_frac         0.73317150        0.86660628        0.03072500  Mo
       atom_frac         0.66717580        0.93508786        0.04634012  S
       atom_frac         0.66717580        0.93508786        0.01510988  S
       atom_frac         0.93309100        0.06695333        0.03072500  Mo
       atom_frac         0.86611159        0.13393021        0.04635928  S
       atom_frac         0.86611159        0.13393021        0.01509072  S
       atom_frac         0.93066253        0.26658088        0.03072500  Mo
       atom_frac         0.85861433        0.33211759        0.04632946  S
       atom_frac         0.85861433        0.33211759        0.01512054  S
       atom_frac         0.92885468        0.46444893        0.03072500  Mo
       atom_frac         0.85861420        0.52653983        0.04632934  S
       atom_frac         0.85861420        0.52653983        0.01512066  S
       atom_frac         0.93066081        0.66412532        0.03072500  Mo
       atom_frac         0.86611346        0.73222786        0.04635933  S
       atom_frac         0.86611346        0.73222786        0.01509067  S
       atom_frac         0.93309179        0.86618228        0.03072500  Mo
       atom_frac         0.86647670        0.93326036        0.04635473  S
       atom_frac         0.86647670        0.93326036        0.01509527  S

 
  Finished reading input file 'control.in'.
 

------------------------------------------------------------
          Reading geometry description geometry.in.
------------------------------------------------------------
 
  Consistency checks for stacksize environment parameter are next.
 
  | Maximum stacksize for task 0: unlimited
  | Maximum stacksize for task 1: unlimited
  | Maximum stacksize for task 2: unlimited
  | Maximum stacksize for task 3: unlimited
  | Maximum stacksize for task 4: unlimited
  | Maximum stacksize for task 5: unlimited
  | Maximum stacksize for task 6: unlimited
  | Maximum stacksize for task 7: unlimited
  | Maximum stacksize for task 8: unlimited
  | Maximum stacksize for task 9: unlimited
  | Maximum stacksize for task 10: unlimited
  | Maximum stacksize for task 11: unlimited
  | Maximum stacksize for task 12: unlimited
  | Maximum stacksize for task 13: unlimited
  | Maximum stacksize for task 14: unlimited
  | Maximum stacksize for task 15: unlimited
  | Maximum stacksize for task 16: unlimited
  | Maximum stacksize for task 17: unlimited
  | Maximum stacksize for task 18: unlimited
  | Maximum stacksize for task 19: unlimited
  | Maximum stacksize for task 20: unlimited
  | Maximum stacksize for task 21: unlimited
  | Maximum stacksize for task 22: unlimited
  | Maximum stacksize for task 23: unlimited
  | Maximum stacksize for task 24: unlimited
  | Maximum stacksize for task 25: unlimited
  | Maximum stacksize for task 26: unlimited
  | Maximum stacksize for task 27: unlimited
  | Maximum stacksize for task 28: unlimited
  | Maximum stacksize for task 29: unlimited
  | Maximum stacksize for task 30: unlimited
  | Maximum stacksize for task 31: unlimited
  | Maximum stacksize for task 32: unlimited
  | Maximum stacksize for task 33: unlimited
  | Maximum stacksize for task 34: unlimited
  | Maximum stacksize for task 35: unlimited
  | Maximum stacksize for task 36: unlimited
  | Maximum stacksize for task 37: unlimited
  | Maximum stacksize for task 38: unlimited
  | Maximum stacksize for task 39: unlimited
  | Maximum stacksize for task 40: unlimited
  | Maximum stacksize for task 41: unlimited
  | Maximum stacksize for task 42: unlimited
  | Maximum stacksize for task 43: unlimited
  | Maximum stacksize for task 44: unlimited
  | Maximum stacksize for task 45: unlimited
  | Maximum stacksize for task 46: unlimited
  | Maximum stacksize for task 47: unlimited
  | Maximum stacksize for task 48: unlimited
  | Maximum stacksize for task 49: unlimited
  | Maximum stacksize for task 50: unlimited
  | Maximum stacksize for task 51: unlimited
  | Maximum stacksize for task 52: unlimited
  | Maximum stacksize for task 53: unlimited
  | Maximum stacksize for task 54: unlimited
  | Maximum stacksize for task 55: unlimited
  | Maximum stacksize for task 56: unlimited
  | Maximum stacksize for task 57: unlimited
  | Maximum stacksize for task 58: unlimited
  | Maximum stacksize for task 59: unlimited
  | Maximum stacksize for task 60: unlimited
  | Maximum stacksize for task 61: unlimited
  | Maximum stacksize for task 62: unlimited
  | Maximum stacksize for task 63: unlimited
  | Maximum stacksize for task 64: unlimited
  | Maximum stacksize for task 65: unlimited
  | Maximum stacksize for task 66: unlimited
  | Maximum stacksize for task 67: unlimited
  | Maximum stacksize for task 68: unlimited
  | Maximum stacksize for task 69: unlimited
  | Maximum stacksize for task 70: unlimited
  | Maximum stacksize for task 71: unlimited
  | Maximum stacksize for task 72: unlimited
  | Maximum stacksize for task 73: unlimited
  | Maximum stacksize for task 74: unlimited
  | Maximum stacksize for task 75: unlimited
  | Maximum stacksize for task 76: unlimited
  | Maximum stacksize for task 77: unlimited
  | Maximum stacksize for task 78: unlimited
  | Maximum stacksize for task 79: unlimited
  | Maximum stacksize for task 80: unlimited
  | Maximum stacksize for task 81: unlimited
  | Maximum stacksize for task 82: unlimited
  | Maximum stacksize for task 83: unlimited
  | Maximum stacksize for task 84: unlimited
  | Maximum stacksize for task 85: unlimited
  | Maximum stacksize for task 86: unlimited
  | Maximum stacksize for task 87: unlimited
  | Maximum stacksize for task 88: unlimited
  | Maximum stacksize for task 89: unlimited
  | Maximum stacksize for task 90: unlimited
  | Maximum stacksize for task 91: unlimited
  | Maximum stacksize for task 92: unlimited
  | Maximum stacksize for task 93: unlimited
  | Maximum stacksize for task 94: unlimited
  | Maximum stacksize for task 95: unlimited
  | Maximum stacksize for task 96: unlimited
  | Maximum stacksize for task 97: unlimited
  | Maximum stacksize for task 98: unlimited
  | Maximum stacksize for task 99: unlimited
  | Maximum stacksize for task 100: unlimited
  | Maximum stacksize for task 101: unlimited
  | Maximum stacksize for task 102: unlimited
  | Maximum stacksize for task 103: unlimited
  | Maximum stacksize for task 104: unlimited
  | Maximum stacksize for task 105: unlimited
  | Maximum stacksize for task 106: unlimited
  | Maximum stacksize for task 107: unlimited
  | Maximum stacksize for task 108: unlimited
  | Maximum stacksize for task 109: unlimited
  | Maximum stacksize for task 110: unlimited
  | Maximum stacksize for task 111: unlimited
  | Maximum stacksize for task 112: unlimited
  | Maximum stacksize for task 113: unlimited
  | Maximum stacksize for task 114: unlimited
  | Maximum stacksize for task 115: unlimited
  | Maximum stacksize for task 116: unlimited
  | Maximum stacksize for task 117: unlimited
  | Maximum stacksize for task 118: unlimited
  | Maximum stacksize for task 119: unlimited
  | Maximum stacksize for task 120: unlimited
  | Maximum stacksize for task 121: unlimited
  | Maximum stacksize for task 122: unlimited
  | Maximum stacksize for task 123: unlimited
  | Maximum stacksize for task 124: unlimited
  | Maximum stacksize for task 125: unlimited
  | Maximum stacksize for task 126: unlimited
  | Maximum stacksize for task 127: unlimited
  | Maximum stacksize for task 128: unlimited
  | Maximum stacksize for task 129: unlimited
  | Maximum stacksize for task 130: unlimited
  | Maximum stacksize for task 131: unlimited
  | Maximum stacksize for task 132: unlimited
  | Maximum stacksize for task 133: unlimited
  | Maximum stacksize for task 134: unlimited
  | Maximum stacksize for task 135: unlimited
  | Maximum stacksize for task 136: unlimited
  | Maximum stacksize for task 137: unlimited
  | Maximum stacksize for task 138: unlimited
  | Maximum stacksize for task 139: unlimited
  | Maximum stacksize for task 140: unlimited
  | Maximum stacksize for task 141: unlimited
  | Maximum stacksize for task 142: unlimited
  | Maximum stacksize for task 143: unlimited
  | Maximum stacksize for task 144: unlimited
  | Maximum stacksize for task 145: unlimited
  | Maximum stacksize for task 146: unlimited
  | Maximum stacksize for task 147: unlimited
  | Maximum stacksize for task 148: unlimited
  | Maximum stacksize for task 149: unlimited
  | Maximum stacksize for task 150: unlimited
  | Maximum stacksize for task 151: unlimited
  | Maximum stacksize for task 152: unlimited
  | Maximum stacksize for task 153: unlimited
  | Maximum stacksize for task 154: unlimited
  | Maximum stacksize for task 155: unlimited
  | Maximum stacksize for task 156: unlimited
  | Maximum stacksize for task 157: unlimited
  | Maximum stacksize for task 158: unlimited
  | Maximum stacksize for task 159: unlimited
  | Current stacksize for task 0: unlimited
  | Current stacksize for task 1: unlimited
  | Current stacksize for task 2: unlimited
  | Current stacksize for task 3: unlimited
  | Current stacksize for task 4: unlimited
  | Current stacksize for task 5: unlimited
  | Current stacksize for task 6: unlimited
  | Current stacksize for task 7: unlimited
  | Current stacksize for task 8: unlimited
  | Current stacksize for task 9: unlimited
  | Current stacksize for task 10: unlimited
  | Current stacksize for task 11: unlimited
  | Current stacksize for task 12: unlimited
  | Current stacksize for task 13: unlimited
  | Current stacksize for task 14: unlimited
  | Current stacksize for task 15: unlimited
  | Current stacksize for task 16: unlimited
  | Current stacksize for task 17: unlimited
  | Current stacksize for task 18: unlimited
  | Current stacksize for task 19: unlimited
  | Current stacksize for task 20: unlimited
  | Current stacksize for task 21: unlimited
  | Current stacksize for task 22: unlimited
  | Current stacksize for task 23: unlimited
  | Current stacksize for task 24: unlimited
  | Current stacksize for task 25: unlimited
  | Current stacksize for task 26: unlimited
  | Current stacksize for task 27: unlimited
  | Current stacksize for task 28: unlimited
  | Current stacksize for task 29: unlimited
  | Current stacksize for task 30: unlimited
  | Current stacksize for task 31: unlimited
  | Current stacksize for task 32: unlimited
  | Current stacksize for task 33: unlimited
  | Current stacksize for task 34: unlimited
  | Current stacksize for task 35: unlimited
  | Current stacksize for task 36: unlimited
  | Current stacksize for task 37: unlimited
  | Current stacksize for task 38: unlimited
  | Current stacksize for task 39: unlimited
  | Current stacksize for task 40: unlimited
  | Current stacksize for task 41: unlimited
  | Current stacksize for task 42: unlimited
  | Current stacksize for task 43: unlimited
  | Current stacksize for task 44: unlimited
  | Current stacksize for task 45: unlimited
  | Current stacksize for task 46: unlimited
  | Current stacksize for task 47: unlimited
  | Current stacksize for task 48: unlimited
  | Current stacksize for task 49: unlimited
  | Current stacksize for task 50: unlimited
  | Current stacksize for task 51: unlimited
  | Current stacksize for task 52: unlimited
  | Current stacksize for task 53: unlimited
  | Current stacksize for task 54: unlimited
  | Current stacksize for task 55: unlimited
  | Current stacksize for task 56: unlimited
  | Current stacksize for task 57: unlimited
  | Current stacksize for task 58: unlimited
  | Current stacksize for task 59: unlimited
  | Current stacksize for task 60: unlimited
  | Current stacksize for task 61: unlimited
  | Current stacksize for task 62: unlimited
  | Current stacksize for task 63: unlimited
  | Current stacksize for task 64: unlimited
  | Current stacksize for task 65: unlimited
  | Current stacksize for task 66: unlimited
  | Current stacksize for task 67: unlimited
  | Current stacksize for task 68: unlimited
  | Current stacksize for task 69: unlimited
  | Current stacksize for task 70: unlimited
  | Current stacksize for task 71: unlimited
  | Current stacksize for task 72: unlimited
  | Current stacksize for task 73: unlimited
  | Current stacksize for task 74: unlimited
  | Current stacksize for task 75: unlimited
  | Current stacksize for task 76: unlimited
  | Current stacksize for task 77: unlimited
  | Current stacksize for task 78: unlimited
  | Current stacksize for task 79: unlimited
  | Current stacksize for task 80: unlimited
  | Current stacksize for task 81: unlimited
  | Current stacksize for task 82: unlimited
  | Current stacksize for task 83: unlimited
  | Current stacksize for task 84: unlimited
  | Current stacksize for task 85: unlimited
  | Current stacksize for task 86: unlimited
  | Current stacksize for task 87: unlimited
  | Current stacksize for task 88: unlimited
  | Current stacksize for task 89: unlimited
  | Current stacksize for task 90: unlimited
  | Current stacksize for task 91: unlimited
  | Current stacksize for task 92: unlimited
  | Current stacksize for task 93: unlimited
  | Current stacksize for task 94: unlimited
  | Current stacksize for task 95: unlimited
  | Current stacksize for task 96: unlimited
  | Current stacksize for task 97: unlimited
  | Current stacksize for task 98: unlimited
  | Current stacksize for task 99: unlimited
  | Current stacksize for task 100: unlimited
  | Current stacksize for task 101: unlimited
  | Current stacksize for task 102: unlimited
  | Current stacksize for task 103: unlimited
  | Current stacksize for task 104: unlimited
  | Current stacksize for task 105: unlimited
  | Current stacksize for task 106: unlimited
  | Current stacksize for task 107: unlimited
  | Current stacksize for task 108: unlimited
  | Current stacksize for task 109: unlimited
  | Current stacksize for task 110: unlimited
  | Current stacksize for task 111: unlimited
  | Current stacksize for task 112: unlimited
  | Current stacksize for task 113: unlimited
  | Current stacksize for task 114: unlimited
  | Current stacksize for task 115: unlimited
  | Current stacksize for task 116: unlimited
  | Current stacksize for task 117: unlimited
  | Current stacksize for task 118: unlimited
  | Current stacksize for task 119: unlimited
  | Current stacksize for task 120: unlimited
  | Current stacksize for task 121: unlimited
  | Current stacksize for task 122: unlimited
  | Current stacksize for task 123: unlimited
  | Current stacksize for task 124: unlimited
  | Current stacksize for task 125: unlimited
  | Current stacksize for task 126: unlimited
  | Current stacksize for task 127: unlimited
  | Current stacksize for task 128: unlimited
  | Current stacksize for task 129: unlimited
  | Current stacksize for task 130: unlimited
  | Current stacksize for task 131: unlimited
  | Current stacksize for task 132: unlimited
  | Current stacksize for task 133: unlimited
  | Current stacksize for task 134: unlimited
  | Current stacksize for task 135: unlimited
  | Current stacksize for task 136: unlimited
  | Current stacksize for task 137: unlimited
  | Current stacksize for task 138: unlimited
  | Current stacksize for task 139: unlimited
  | Current stacksize for task 140: unlimited
  | Current stacksize for task 141: unlimited
  | Current stacksize for task 142: unlimited
  | Current stacksize for task 143: unlimited
  | Current stacksize for task 144: unlimited
  | Current stacksize for task 145: unlimited
  | Current stacksize for task 146: unlimited
  | Current stacksize for task 147: unlimited
  | Current stacksize for task 148: unlimited
  | Current stacksize for task 149: unlimited
  | Current stacksize for task 150: unlimited
  | Current stacksize for task 151: unlimited
  | Current stacksize for task 152: unlimited
  | Current stacksize for task 153: unlimited
  | Current stacksize for task 154: unlimited
  | Current stacksize for task 155: unlimited
  | Current stacksize for task 156: unlimited
  | Current stacksize for task 157: unlimited
  | Current stacksize for task 158: unlimited
  | Current stacksize for task 159: unlimited
 
  Consistency checks for the contents of control.in are next.
 
  MPI_IN_PLACE appears to work with this MPI implementation.
  | Keeping use_mpi_in_place .true. (see manual).
  Target number of points in a grid batch is not set. Defaulting to  100
  Method for grid partitioning is not set. Defaulting to parallel hash+maxmin partitioning.
  Batch size limit is not set. Defaulting to    200
  By default, will store active basis functions for each batch.
  If in need of memory, prune_basis_once .false. can be used to disable this option.
  communication_type for Hartree potential was not specified.
  Defaulting to calc_hartree .
  Pulay mixer: Number of initial linear mixing iterations not set.
  Defaulting to    0 iterations.
  Work space size for distributed Hartree potential not set.
  Defaulting to   0.200000E+03 MB.
  Algorithm-dependent basis array size parameters:
  | n_max_pulay                         :       12
  Maximum number of self-consistency iterations not provided.
  Presetting  1000 iterations.
  Presetting      1001 iterations before the initial mixing cycle
  is restarted anyway using the sc_init_iter criterion / keyword.
  Presetting a factor      1.000 between actual scf density residual
  and density convergence criterion sc_accuracy_rho below which sc_init_iter
  takes no effect.
 * No s.c.f. convergence criteria (sc_accuracy_*) were provided in control.in.
 * The run will proceed with a reasonable default guess, but please check whether.
 * the s.c.f. cycles seem to take too much or too little time.
  No maximum number of relaxation steps, defaulting to     1000
  Default initial Hessian is Lindh matrix (thres = 15.00) plus  0.200000E+01 eV/A^2 times unity.
  Maximum energy tolerance by which TRM/BFGS trajectory may increase over multiple steps:   0.300000E-02
  No trust radius initializer. Defaulting to   0.200000E+00 A.
 * Notice: The s.c.f. convergence criterion sc_accuracy_rho was not provided.
 * We used to stop in this case, and ask the user to provide reasonable
 * scf convergence criteria. However, this led some users to employ criteria
 * that led to extremely long run times, e.g., for simple relaxation.
 * We now preset a default value for sc_accuracy_rho if it is not set.
 * You may still wish to check if this setting is too tight or too loose for your needs.
 * Based on n_atoms, FHI-aims chose sc_accuracy_rho =  0.348807E-05 .
  Force calculation: scf convergence accuracy of forces not set.
  Defaulting to 'sc_accuracy_forces not_checked'.
  Handling of forces: Unphysical translation and rotation will be removed from forces.
  No accuracy limit for integral partition fn. given. Defaulting to  0.1000E-14.
  No threshold value for u(r) in integrations given. Defaulting to  0.1000E-05.
  No accuracy for occupation numbers given. Defaulting to  0.1000E-12.
  No threshold value for occupation numbers given. Defaulting to  0.0000E+00.
  No accuracy for fermi level given. Defaulting to  0.1000E-19.
  Maximum # of iterations to find E_F not set. Defaulting to  200.
  Preferred method for the eigenvalue solver ('KS_method') not specified in 'control.in'.
  Calling BLACS routine to test compilation state
  Since ScaLAPACK support is enabled, defaulting to ELPA (via ELSI).
  Will not use alltoall communication since running on < 1024 CPUs.
  Threshold for basis singularities not set.
  Default threshold for basis singularities:  0.1000E-04
  partition_type (choice of integration weights) for integrals was not specified.
  | Using a version of the partition function of Stratmann and coworkers ('stratmann_sparse').
  | At each grid point, the set of atoms used to build the partition table is smoothly restricted to
  | only those atoms whose free-atom density would be non-zero at that grid point.
  Partitioning for Hartree potential was not defined. Using partition_type for integrals.
  | Adjusted default value of keyword multip_moments_threshold to:       0.10000000E-11
  | This value may affect high angular momentum components of the Hartree potential in periodic systems.
  Angular momentum expansion for Kerker preconditioner not set explicitly.
  | Using default value of   0
  No explicit requirement for turning off preconditioner.
  | By default, it will be turned off when the charge convergence reaches
  | sc_accuracy_rho  =   0.348807E-05
  No special mixing parameter while Kerker preconditioner is on.
  Using default: charge_mix_param =     0.1000.
  No q(lm)/r^(l+1) cutoff set for long-range Hartree potential.
  | Using default value of  0.100000E-09 .
  | Verify using the multipole_threshold keyword.
  Defaulting to new monopole extrapolation.
  Density update method: automatic selection selected.
  Using density matrix based charge density update.
  Using density matrix based charge density update.
  Using packed matrix style: index .
  Geometry relaxation: A file "geometry.in.next_step" is written out by default after each step.
  | This file contains the geometry of the current relaxation step as well as
  | the current Hessian matrix needed to restart the relaxation algorithm.
  | If you do not want part or all of this information, use the keywords
  | "write_restart_geometry" or "hessian_to_restart_geometry" to switch the output off.
  Defaulting to use time-reversal symmetry for k-point grid.
  Charge integration errors on the 3D integration grid will be compensated
  by explicit normalization and distribution of residual charges.
  Use the "compensate_multipole_errors" flag to change this behaviour.
  * Volumetric cube output requested. Tightening default wave_threshold to 1d-8
 
  Consistency checks for the contents of geometry.in are next.
 

  Range separation radius for Ewald summation (hartree_convergence_parameter):      5.00000000 bohr.
  Number of empty states per atom not set in control.in - providing a guess from actual geometry.
  | Total number of empty states used during s.c.f. cycle:      282
  If you use a very high smearing, use empty_states (per atom!) in control.in to increase this value.

  Structure-dependent array size parameters: 
  | Maximum number of distinct radial functions  :       26
  | Maximum number of basis functions            :     3097
  | Number of Kohn-Sham states (occupied + empty):     1191
------------------------------------------------------------

------------------------------------------------------------
          Preparing all fixed parts of the calculation.
------------------------------------------------------------
  Determining machine precision:
    2.225073858507201E-308
  Setting up grids for atomic and cluster calculations.

  Creating wave function, potential, and density for free atoms.

  Species: S

  List of occupied orbitals and eigenvalues:
    n    l              occ      energy [Ha]    energy [eV]
    1    0           2.0000       -88.680731     -2413.1255
    2    0           2.0000        -7.781719      -211.7513
    3    0           2.0000        -0.633662       -17.2428
    2    1           6.0000        -5.751976      -156.5192
    3    1           4.0000        -0.257086        -6.9957


  Species: Mo

  List of occupied orbitals and eigenvalues:
    n    l              occ      energy [Ha]    energy [eV]
    1    0           2.0000      -745.344654    -20281.8600
    2    0           2.0000      -103.288246     -2810.6162
    3    0           2.0000       -17.516687      -476.6533
    4    0           2.0000        -2.358559       -64.1796
    5    0           1.0000        -0.145159        -3.9500
    2    1           6.0000       -92.308627     -2511.8455
    3    1           6.0000       -13.936005      -379.2180
    4    1           6.0000        -1.408138       -38.3174
    3    2          10.0000        -8.119011      -220.9295
    4    2           5.0000        -0.132984        -3.6187


  Adding cutoff potential to free-atom effective potential.
  Creating fixed part of basis set: Ionic, confined, hydrogenic.
 
  S                    ion:

  List of free ionic orbitals and eigenvalues:
    n    l      energy [Ha]    energy [eV]
    1    0       -89.703778     -2440.9640
    2    0        -8.775428      -238.7916
    3    0        -1.470343       -40.0101
    2    1        -6.747660      -183.6132
    3    1        -1.048627       -28.5346


  List of ionic basis orbitals and eigenvalues:
    n    l      energy [Ha]    energy [eV]    outer radius [A]
    3    2        -0.495605       -13.4861       5.587574
    3    0        -1.470336       -40.0099       4.166788

 
  S                    hydrogenic:
 
  List of hydrogenic basis orbitals: 
    n    l      effective z      eigenvalue [eV]  inner max. [A]     outer max. [A]     outer radius [A]   
    2    1         1.800000       -11.0118           1.168531           1.168531           5.587574
    4    3         7.000000       -41.6672           1.212182           1.212182           5.256262
    4    2         6.200000       -32.6848           0.582121           1.814567           5.587574
    5    4        10.800000       -63.4785           1.227092           1.227092           4.944596
 
 
  Mo                   ion:

  List of free ionic orbitals and eigenvalues:
    n    l      energy [Ha]    energy [eV]
    1    0      -746.048685    -20301.0176
    2    0      -103.980912     -2829.4646
    3    0       -18.206601      -495.4268
    4    0        -3.040545       -82.7374
    2    1       -93.001013     -2530.6863
    3    1       -14.625827      -397.9890
    4    1        -2.084855       -56.7318
    3    2        -8.808854      -239.7011
    4    2        -0.765435       -20.8285


  List of ionic basis orbitals and eigenvalues:
    n    l      energy [Ha]    energy [eV]    outer radius [A]
    5    1        -0.465587       -12.6693       5.591446
    5    0        -0.650331       -17.6964       5.591446

 
  Mo                   hydrogenic:
 
  List of hydrogenic basis orbitals: 
    n    l      effective z      eigenvalue [eV]  inner max. [A]     outer max. [A]     outer radius [A]   
    4    3         8.400000       -60.0010           1.009788           1.009788           4.654634
    3    2         2.800000       -11.8048           1.687401           1.687401           5.591446
    5    4        12.000000       -78.3687           1.100005           1.100005           4.654634
 
  Creating atomic-like basis functions for current effective potential.

  Species S                   :

  List of atomic basis orbitals and eigenvalues:
    n    l      energy [Ha]    energy [eV]    outer radius [A]
    1    0       -88.680731     -2413.1255       0.871402
    2    0        -7.781719      -211.7513       2.923031
    3    0        -0.633662       -17.2428       5.452614
    2    1        -5.751976      -156.5192       3.303131
    3    1        -0.257086        -6.9957       5.587574


  Species Mo                  :

  List of atomic basis orbitals and eigenvalues:
    n    l      energy [Ha]    energy [eV]    outer radius [A]
    1    0      -745.344654    -20281.8600       0.312279
    2    0      -103.288246     -2810.6162       0.850943
    3    0       -17.516687      -476.6533       2.051947
    4    0        -2.358559       -64.1796       4.948023
    5    0        -0.145159        -3.9500       5.591446
    2    1       -92.308627     -2511.8455       0.882731
    3    1       -13.936005      -379.2180       2.235275
    4    1        -1.408138       -38.3174       5.259905
    3    2        -8.119011      -220.9295       2.785462
    4    2        -0.132984        -3.6187       5.591446

  Assembling full basis from fixed parts.
  | Species S :   atomic orbital   1 s accepted.
  | Species S :   atomic orbital   2 s accepted.
  | Species S :    ionic orbital   3 s accepted.
  | Species S :   atomic orbital   3 s accepted.
  | Species S :   atomic orbital   2 p accepted.
  | Species S :   atomic orbital   3 p accepted.
  | Species S :    hydro orbital   2 p accepted.
  | Species S :    ionic orbital   3 d accepted.
  | Species S :    hydro orbital   4 d accepted.
  | Species S :    hydro orbital   4 f accepted.
  | Species S :    hydro orbital   5 g accepted.
  | Species Mo :   atomic orbital   1 s accepted.
  | Species Mo :   atomic orbital   2 s accepted.
  | Species Mo :   atomic orbital   3 s accepted.
  | Species Mo :   atomic orbital   4 s accepted.
  | Species Mo :   atomic orbital   5 s accepted.
  | Species Mo :    ionic orbital   5 s accepted.
  | Species Mo :   atomic orbital   2 p accepted.
  | Species Mo :   atomic orbital   3 p accepted.
  | Species Mo :   atomic orbital   4 p accepted.
  | Species Mo :    ionic orbital   5 p accepted.
  | Species Mo :   atomic orbital   3 d accepted.
  | Species Mo :   atomic orbital   4 d accepted.
  | Species Mo :    hydro orbital   3 d accepted.
  | Species Mo :    hydro orbital   4 f accepted.
  | Species Mo :    hydro orbital   5 g accepted.
 
  Basis size parameters after reduction:
  | Total number of radial functions:       26
  | Total number of basis functions :     3097
 
  Per-task memory consumption for arrays in subroutine allocate_ext:
  |           9.629756MB.
  Testing on-site integration grid accuracy.
  |  Species  Function  <phi|h_atom|phi> (log., in eV)  <phi|h_atom|phi> (rad., in eV)
           1        1              -2413.1254568977              -2413.1254096663
           1        2               -211.7513411281               -211.7513404762
           1        3                -16.9725280787                -16.9725279206
           1        4                  7.6024436204                  7.6024549059
           1        5               -156.5192206929               -156.5192205451
           1        6                 -6.9959757887                 -6.9959777655
           1        7                  6.8896462808                  6.8895564741
           1        8                  6.0214250550                  6.0214220200
           1        9                 19.6206468977                 19.6206494558
           1       10                 24.7008710786                 24.7008710738
           1       11                 47.5292252001                 47.5292260486
           2       12             -20281.8599610543             -20281.8584300616
           2       13              -2810.6161812280              -2810.6161551921
           2       14               -476.6533163555               -476.6533136395
           2       15                -64.1796433667                -64.1796426456
           2       16                 -3.9595702532                 -3.9596328763
           2       17                  5.0608548288                  5.0603628221
           2       18              -2511.8455406047              -2511.8455385741
           2       19               -379.2179896350               -379.2179882338
           2       20                -38.3173891619                -38.3173886619
           2       21                  0.2493245095                  0.2492931069
           2       22               -220.9295301098               -220.9295297081
           2       23                 -3.6195697699                 -3.6195754704
           2       24                  7.1428000922                  7.1426882355
           2       25                 23.3975871087                 23.3975871819
           2       26                 50.2449608881                 50.2449608586

  Preparing densities etc. for the partition functions (integrals / Hartree potential).

  Preparations completed.
  max(cpu_time)          :      0.446 s.
  Wall clock time (cpu1) :      0.506 s.
------------------------------------------------------------

------------------------------------------------------------
          Begin self-consistency loop: Initialization.

          Date     :  20210324, Time     :  142533.475
------------------------------------------------------------

  Initializing index lists of integration centers etc. from given atomic structure:
  Mapping all atomic coordinates to central unit cell.

  Initializing the k-points
  Using symmetry for reducing the k-points
  | k-points reduced from:        4 to        4
  | Number of k-points                             :         4
  The eigenvectors in the calculations are REAL.
  | Number of basis functions in the Hamiltonian integrals :      8491
  | Number of basis functions in a single unit cell        :      3097
  | Number of centers in hartree potential         :       761
  | Number of centers in hartree multipole         :       483
  | Number of centers in electron density summation:       437
  | Number of centers in basis integrals           :       439
  | Number of centers in integrals                 :       259
  | Number of centers in hamiltonian               :       437
  | Consuming          0 KiB for k_phase.
  | Number of super-cells (origin) [n_cells]                     :          75
  | Number of super-cells (after PM_index) [n_cells]             :          10
  | Number of super-cells in hamiltonian [n_cells_in_hamiltonian]:          10
  | Size of matrix packed + index [n_hamiltonian_matrix_size] :     6455892

  Initializing relaxation algorithms.
  Finished initialization of distributed Hessian storage.
  | Global dimension:       219
  | BLACS block size:         2
  | Number of workers:      110

  | Estimated reciprocal-space cutoff momentum G_max:         1.90186217 bohr^-1 .
  | Reciprocal lattice points for long-range Hartree potential:   17088
  Using simple linear distribution as default method for k-point parallelism.
  * Using 160 tasks for Scalapack Eigenvalue solver.
  Detailed listing of tasks and assigned k-points:
   Task     0 k-point     1 on co4483
   Task     1 k-point     1 on co4483
   Task     2 k-point     1 on co4483
   Task     3 k-point     1 on co4483
   Task     4 k-point     1 on co4483
   Task     5 k-point     1 on co4483
   Task     6 k-point     1 on co4483
   Task     7 k-point     1 on co4483
   Task     8 k-point     1 on co4483
   Task     9 k-point     1 on co4483
   Task    10 k-point     1 on co4483
   Task    11 k-point     1 on co4483
   Task    12 k-point     1 on co4483
   Task    13 k-point     1 on co4483
   Task    14 k-point     1 on co4483
   Task    15 k-point     1 on co4483
   Task    16 k-point     1 on co4483
   Task    17 k-point     1 on co4483
   Task    18 k-point     1 on co4483
   Task    19 k-point     1 on co4483
   Task    20 k-point     1 on co4483
   Task    21 k-point     1 on co4483
   Task    22 k-point     1 on co4483
   Task    23 k-point     1 on co4483
   Task    24 k-point     1 on co4483
   Task    25 k-point     1 on co4483
   Task    26 k-point     1 on co4483
   Task    27 k-point     1 on co4483
   Task    28 k-point     1 on co4483
   Task    29 k-point     1 on co4483
   Task    30 k-point     1 on co4483
   Task    31 k-point     1 on co4483
   Task    32 k-point     1 on co4483
   Task    33 k-point     1 on co4483
   Task    34 k-point     1 on co4483
   Task    35 k-point     1 on co4483
   Task    36 k-point     1 on co4483
   Task    37 k-point     1 on co4483
   Task    38 k-point     1 on co4483
   Task    39 k-point     1 on co4483
   Task    40 k-point     2 on co4484
   Task    41 k-point     2 on co4484
   Task    42 k-point     2 on co4484
   Task    43 k-point     2 on co4484
   Task    44 k-point     2 on co4484
   Task    45 k-point     2 on co4484
   Task    46 k-point     2 on co4484
   Task    47 k-point     2 on co4484
   Task    48 k-point     2 on co4484
   Task    49 k-point     2 on co4484
   Task    50 k-point     2 on co4484
   Task    51 k-point     2 on co4484
   Task    52 k-point     2 on co4484
   Task    53 k-point     2 on co4484
   Task    54 k-point     2 on co4484
   Task    55 k-point     2 on co4484
   Task    56 k-point     2 on co4484
   Task    57 k-point     2 on co4484
   Task    58 k-point     2 on co4484
   Task    59 k-point     2 on co4484
   Task    60 k-point     2 on co4484
   Task    61 k-point     2 on co4484
   Task    62 k-point     2 on co4484
   Task    63 k-point     2 on co4484
   Task    64 k-point     2 on co4484
   Task    65 k-point     2 on co4484
   Task    66 k-point     2 on co4484
   Task    67 k-point     2 on co4484
   Task    68 k-point     2 on co4484
   Task    69 k-point     2 on co4484
   Task    70 k-point     2 on co4484
   Task    71 k-point     2 on co4484
   Task    72 k-point     2 on co4484
   Task    73 k-point     2 on co4484
   Task    74 k-point     2 on co4484
   Task    75 k-point     2 on co4484
   Task    76 k-point     2 on co4484
   Task    77 k-point     2 on co4484
   Task    78 k-point     2 on co4484
   Task    79 k-point     2 on co4484
   Task    80 k-point     3 on co4485
   Task    81 k-point     3 on co4485
   Task    82 k-point     3 on co4485
   Task    83 k-point     3 on co4485
   Task    84 k-point     3 on co4485
   Task    85 k-point     3 on co4485
   Task    86 k-point     3 on co4485
   Task    87 k-point     3 on co4485
   Task    88 k-point     3 on co4485
   Task    89 k-point     3 on co4485
   Task    90 k-point     3 on co4485
   Task    91 k-point     3 on co4485
   Task    92 k-point     3 on co4485
   Task    93 k-point     3 on co4485
   Task    94 k-point     3 on co4485
   Task    95 k-point     3 on co4485
   Task    96 k-point     3 on co4485
   Task    97 k-point     3 on co4485
   Task    98 k-point     3 on co4485
   Task    99 k-point     3 on co4485
   Task   100 k-point     3 on co4485
   Task   101 k-point     3 on co4485
   Task   102 k-point     3 on co4485
   Task   103 k-point     3 on co4485
   Task   104 k-point     3 on co4485
   Task   105 k-point     3 on co4485
   Task   106 k-point     3 on co4485
   Task   107 k-point     3 on co4485
   Task   108 k-point     3 on co4485
   Task   109 k-point     3 on co4485
   Task   110 k-point     3 on co4485
   Task   111 k-point     3 on co4485
   Task   112 k-point     3 on co4485
   Task   113 k-point     3 on co4485
   Task   114 k-point     3 on co4485
   Task   115 k-point     3 on co4485
   Task   116 k-point     3 on co4485
   Task   117 k-point     3 on co4485
   Task   118 k-point     3 on co4485
   Task   119 k-point     3 on co4485
   Task   120 k-point     4 on co4486
   Task   121 k-point     4 on co4486
   Task   122 k-point     4 on co4486
   Task   123 k-point     4 on co4486
   Task   124 k-point     4 on co4486
   Task   125 k-point     4 on co4486
   Task   126 k-point     4 on co4486
   Task   127 k-point     4 on co4486
   Task   128 k-point     4 on co4486
   Task   129 k-point     4 on co4486
   Task   130 k-point     4 on co4486
   Task   131 k-point     4 on co4486
   Task   132 k-point     4 on co4486
   Task   133 k-point     4 on co4486
   Task   134 k-point     4 on co4486
   Task   135 k-point     4 on co4486
   Task   136 k-point     4 on co4486
[...]
  Maximum force component is  0.399594E-03 eV/A.
  Present geometry is converged.

------------------------------------------------------------
  Final atomic structure:
                         x [A]             y [A]             z [A]
  lattice_vector        15.90000000        0.00000000        0.00000000
  lattice_vector        -7.95000000       13.76980390        0.00000000
  lattice_vector         0.00000000        0.00000000      100.00000000

            atom         1.59613822        0.92191913        3.07250000  Mo
            atom         0.00000973        1.83920609        4.63547536  S
            atom         0.00000973        1.83920609        1.50952464  S
            atom        -0.00002290        3.67479305        3.07250000  Mo
            atom        -1.61356553        4.58352619        4.63399983  S
            atom        -1.61356553        4.58352619        1.51100017  S
            atom        -1.60497560        6.41751176        3.07250000  Mo
            atom        -3.20896606        7.32757763        4.62985078  S
            atom        -3.20896606        7.32757763        1.51514922  S
            atom        -3.19514608        9.17169361        3.07250000  Mo
            atom        -4.78771013       10.08126807        4.63399491  S
            atom        -4.78771013       10.08126807        1.51100509  S
            atom        -4.76790407       11.93299347        3.07250000  Mo
            atom        -6.35755299       12.85081243        4.63548619  S
            atom        -6.35755299       12.85081243        1.50951381  S
            atom         4.78952178        0.95530264        3.07250000  Mo
            atom         3.19356093        1.84419301        4.63592842  S
            atom         3.19356093        1.84419301        1.50907158  S
            atom         3.22179902        3.67077445        3.07250000  Mo
            atom         1.61355273        4.58349915        4.63399001  S
            atom         1.61355273        4.58349915        1.51100999  S
            atom         1.60498546        6.41749764        3.07250000  Mo
            atom         0.00000267        7.33690778        4.63059148  S
            atom         0.00000267        7.33690778        1.51440852  S
            atom        -0.00000106        9.18026067        3.07250000  Mo
            atom        -1.59640911       10.10192597        4.63059396  S
            atom        -1.59640911       10.10192597        1.51440604  S
            atom        -1.59014900       11.95155292        3.07250000  Mo
            atom        -3.17414171       12.87599276        4.63399141  S
            atom        -3.17414171       12.87599276        1.51100859  S
            atom         7.95000042        0.98013150        3.07250000  Mo
            atom         6.40434524        1.94733489        4.63295388  S
            atom         6.40434524        1.94733489        1.51204612  S
            atom         6.51224305        3.76016089        3.07250000  Mo
            atom         4.88837837        4.57319248        4.63294762  S
            atom         4.88837837        4.57319248        1.51205238  S
            atom         4.82359510        6.39537601        3.07250000  Mo
            atom         3.20896959        7.32758424        4.62984024  S
            atom         3.20896959        7.32758424        1.51515976  S
            atom         3.19512573        9.17171104        3.07250000  Mo
            atom         1.59640676       10.10193372        4.63058991  S
            atom         1.59640676       10.10193372        1.51441009  S
            atom         1.59015597       11.95157923        3.07250000  Mo
            atom        -0.00000178       12.88557681        4.62985516  S
            atom        -0.00000178       12.88557681        1.51514484  S
            atom        11.11048378        0.95527753        3.07250000  Mo
            atom         9.49566275        1.94733041        4.63295088  S
            atom         9.49566275        1.94733041        1.51204912  S
            atom         9.38772961        3.76016832        3.07250000  Mo
            atom         7.94999313        6.25043694        3.07250000  Mo
            atom         6.43402529        7.25035618        4.63295041  S
            atom         6.43402529        7.25035618        1.51204959  S
            atom         6.38226807        9.14486069        3.07250000  Mo
            atom         4.78771138       10.08126925        4.63399309  S
            atom         4.78771138       10.08126925        1.51100691  S
            atom         4.76790696       11.93299860        3.07250000  Mo
            atom         3.17414680       12.87597647        4.63401209  S
            atom         3.17414680       12.87597647        1.51098791  S
            atom        14.30386802        0.92193416        3.07250000  Mo
            atom        12.70642906        1.84419272        4.63592777  S
            atom        12.70642906        1.84419272        1.50907223  S
            atom        12.67821622        3.67076640        3.07250000  Mo
            atom        11.01163310        4.57319405        4.63294551  S
            atom        11.01163310        4.57319405        1.51205449  S
            atom        11.07642042        6.39537068        3.07250000  Mo
            atom         9.46597414        7.25035016        4.63293443  S
            atom         9.46597414        7.25035016        1.51206557  S
            atom         9.51771058        9.14487538        3.07250000  Mo
            atom         7.94999249       10.08263404        4.63593337  S
            atom         7.94999249       10.08263404        1.50906663  S
            atom         7.95001044       11.92716009        3.07250000  Mo
            atom         6.35755964       12.85081214        4.63547342  S
            atom         6.35755964       12.85081214        1.50952658  S

  Fractional coordinates:
                         L1                L2                L3
       atom_frac         0.13386217        0.06695223        0.03072500  Mo
       atom_frac         0.06678465        0.13356807        0.04635475  S
       atom_frac         0.06678465        0.13356807        0.01509525  S
       atom_frac         0.13343521        0.26687330        0.03072500  Mo
       atom_frac         0.06495186        0.33286794        0.04634000  S
       atom_frac         0.06495186        0.33286794        0.01511000  S
       atom_frac         0.13208658        0.46605687        0.03072500  Mo
       atom_frac         0.06425238        0.53214829        0.04629851  S
       atom_frac         0.06425238        0.53214829        0.01515149  S
       atom_frac         0.13208388        0.66607293        0.03072500  Mo
       atom_frac         0.06495049        0.73212866        0.04633995  S
       atom_frac         0.06495049        0.73212866        0.01511005  S
       atom_frac         0.13343478        0.86660591        0.03072500  Mo
       atom_frac         0.06678409        0.93326038        0.04635486  S
       atom_frac         0.06678409        0.93326038        0.01509514  S
       atom_frac         0.33591610        0.06937663        0.03072500  Mo
       atom_frac         0.26781800        0.13393023        0.04635928  S
       atom_frac         0.26781800        0.13393023        0.01509072  S
       atom_frac         0.33591960        0.26658146        0.03072500  Mo
       atom_frac         0.26791429        0.33286597        0.04633990  S
       atom_frac         0.26791429        0.33286597        0.01511010  S
       atom_frac         0.33397041        0.46605585        0.03072500  Mo
       atom_frac         0.26641310        0.53282587        0.04630591  S
       atom_frac         0.26641310        0.53282587        0.01514409  S
       atom_frac         0.33334748        0.66669509        0.03072500  Mo
       atom_frac         0.26641136        0.73362889        0.04630594  S
       atom_frac         0.26641136        0.73362889        0.01514406  S
       atom_frac         0.33396750        0.86795375        0.03072500  Mo
       atom_frac         0.26791297        0.93508904        0.04633991  S
       atom_frac         0.26791297        0.93508904        0.01511009  S
       atom_frac         0.53558991        0.07117977        0.03072500  Mo
       atom_frac         0.47349934        0.14142067        0.04632954  S
       atom_frac         0.47349934        0.14142067        0.01512046  S
       atom_frac         0.54611151        0.27307294        0.03072500  Mo
       atom_frac         0.47350392        0.33211747        0.04632948  S
       atom_frac         0.47350392        0.33211747        0.01512052  S
       atom_frac         0.53559542        0.46444932        0.03072500  Mo
       atom_frac         0.46789637        0.53214877        0.04629840  S
       atom_frac         0.46789637        0.53214877        0.01515160  S
       atom_frac         0.53398840        0.66607419        0.03072500  Mo
       atom_frac         0.46721767        0.73362945        0.04630590  S
       atom_frac         0.46721767        0.73362945        0.01514410  S
       atom_frac         0.53398764        0.86795566        0.03072500  Mo
       atom_frac         0.46789242        0.93578506        0.04629855  S
       atom_frac         0.46789242        0.93578506        0.01515145  S
       atom_frac         0.73345997        0.06937481        0.03072500  Mo
       atom_frac         0.66792167        0.14142034        0.04632951  S
       atom_frac         0.66792167        0.14142034        0.01512049  S
       atom_frac         0.72695999        0.27307348        0.03072500  Mo
       atom_frac         0.72696129        0.45392345        0.03072500  Mo
       atom_frac         0.66792581        0.52654026        0.04632950  S
       atom_frac         0.66792581        0.52654026        0.01512050  S
       atom_frac         0.73346263        0.66412425        0.03072500  Mo
       atom_frac         0.66717830        0.73212875        0.04633993  S
       atom_frac         0.66717830        0.73212875        0.01511007  S
       atom_frac         0.73317150        0.86660628        0.03072500  Mo
       atom_frac         0.66717580        0.93508786        0.04634012  S
       atom_frac         0.66717580        0.93508786        0.01510988  S
       atom_frac         0.93309100        0.06695333        0.03072500  Mo
       atom_frac         0.86611159        0.13393021        0.04635928  S
       atom_frac         0.86611159        0.13393021        0.01509072  S
       atom_frac         0.93066253        0.26658088        0.03072500  Mo
       atom_frac         0.85861433        0.33211759        0.04632946  S
       atom_frac         0.85861433        0.33211759        0.01512054  S
       atom_frac         0.92885468        0.46444893        0.03072500  Mo
       atom_frac         0.85861420        0.52653983        0.04632934  S
       atom_frac         0.85861420        0.52653983        0.01512066  S
       atom_frac         0.93066081        0.66412532        0.03072500  Mo
       atom_frac         0.86611346        0.73222786        0.04635933  S
       atom_frac         0.86611346        0.73222786        0.01509067  S
       atom_frac         0.93309179        0.86618228        0.03072500  Mo
       atom_frac         0.86647670        0.93326036        0.04635473  S
       atom_frac         0.86647670        0.93326036        0.01509527  S
------------------------------------------------------------

  ------------------------------------------------------------
                      Starting Cube Output
  ------------------------------------------------------------

  The following cube files will be created:

  --------------------------------------
    Cube file:            1
    cube origin       3.9750      6.8849      3.0725
    cube edge 100      0.1590      0.0000      0.0000
    cube edge 100     -0.0795      0.1377      0.0000
    cube edge 105      0.0000      0.0000      0.1000
    cube filename: cube_001_first_order_density.cube2
  --------------------------------------

  * WARNING: The output  of  the cube file is in 1/Ang^3  or
  * WARNING: 1/Ang^3/2,  but  the cube voxel  definition  is
  * WARNING: in atomic units. Be careful when postprocessing
  * WARNING: Consistent units can be chosen in control.in by
  *               cube_content_unit  bohr

  Evaluating density matrix
  Finished density matrix calculation
  | Time :     0.001 s
 
   Starting cube            1
   Cube will be divided in
     100 minicubes along the first,
     100 minicubes along the second, and
     105 minicubes along the third cube edge
   Dividing grid points on processors

      => Writing 4101kB binary STM file for WSxM.

   Cube file 1 finished.

  Cube output                                             :  max(cpu_time)    wall_clock(cpu1)
  | Total time for cube output                            :         51.689              51.974
------------------------------------------------------------

------------------------------------------------------------------------------
  Final output of selected total energy values:

  The following output summarizes some interesting total energy values
  at the end of a run (AFTER all relaxation, molecular dynamics, etc.).

  | Total energy of the DFT / Hartree-Fock s.c.f. calculation      :       -3303149.744807230 eV
  | Final zero-broadening corrected energy (caution - metals only) :       -3303149.744807230 eV
  | For reference only, the value of 1 Hartree used in FHI-aims is :             27.211384500 eV
  | For reference only, the overall average (free atom contribution
  | + realspace contribution) of the electrostatic potential after
  | s.c.f. convergence is                                          :             -1.087089658 eV

  Before relying on these values, please be sure to understand exactly which
  total energy value is referred to by a given number. Different objects may
  all carry the same name 'total energy'. Definitions:

  Total energy of the DFT / Hartree-Fock s.c.f. calculation:
  | Note that this energy does not include ANY quantities calculated after the
  | s.c.f. cycle, in particular not ANY RPA, MP2, etc. many-body perturbation terms.

  Final zero-broadening corrected energy:
  | For metallic systems only, a broadening of the occupation numbers at the Fermi
  | level can be extrapolated back to zero broadening by an electron-gas inspired
  | formula. For all systems that are not real metals, this value can be
  | meaningless and should be avoided.

------------------------------------------------------------------------------
  Methods described in the following list of references were used in this FHI-aims run.
  If you publish the results, please make sure to cite these reference if they apply.
  FHI-aims is an academic code, and for our developers (often, Ph.D. students
  and postdocs), scientific credit in the community is essential.
  Thank you for helping us!

  For any use of FHI-aims, please cite:

    Volker Blum, Ralf Gehrke, Felix Hanke, Paula Havu, Ville Havu,
    Xinguo Ren, Karsten Reuter, and Matthias Scheffler
    'Ab initio molecular simulations with numeric atom-centered orbitals'
    Computer Physics Communications 180, 2175-2196 (2009)
    http://dx.doi.org/10.1016/j.cpc.2009.06.022


  The provided symmetry information was generated with SPGlib:

    Atsushi Togo, Yusuke Seto, Dimitar Pashov
    SPGlib 1.7.3 obtained from http://spglib.sourceforge.net
    Copyright (C) 2008 Atsushi Togo


  The ELSI infrastructure was used in your run to solve the Kohn-Sham electronic structure.
  Please check out http://elsi-interchange.org to learn more.
  If scalability is important for your project, please acknowledge ELSI by citing:

    V. W-z. Yu, F. Corsetti, A. Garcia, W. P. Huhn, M. Jacquelin, W. Jia,
    B. Lange, L. Lin, J. Lu, W. Mi, A. Seifitokaldani, A. Vazquez-Mayagoitia,
    C. Yang, H. Yang, and V. Blum
    'ELSI: A unified software interface for Kohn-Sham electronic structure solvers'
    Computer Physics Communications 222, 267-285 (2018).
    http://dx.doi.org/10.1016/j.cpc.2017.09.007


  For the real-space grid partitioning and parallelization used in this calculation, please cite:

    Ville Havu, Volker Blum, Paula Havu, and Matthias Scheffler,
    'Efficient O(N) integration for all-electron electronic structure calculation'
    'using numerically tabulated basis functions'
    Journal of Computational Physics 228, 8367-8379 (2009).
    http://dx.doi.org/10.1016/j.jcp.2009.08.008

  Of course, there are many other important community references, e.g., those cited in the
  above references. Our list is limited to references that describe implementations in the
  FHI-aims code. The reason is purely practical (length of this list) - please credit others as well.

 * A warning regarding the cube file format (cube_content_unit legacy)
 * was issued above. The output is Angstrom-based but the cube voxel
 * definition is in atomic units. Please check carefully.

------------------------------------------------------------
          Leaving FHI-aims.
          Date     :  20210324, Time     :  143143.895

          Computational steps:
          | Number of self-consistency cycles          :           30
          | Number of SCF (re)initializations          :            1
          | Number of relaxation steps                 :            0

          Detailed time accounting                     :  max(cpu_time)    wall_clock(cpu1)
          | Total time                                 :      370.734 s         371.823 s
          | Preparation time                           :        0.446 s           0.506 s
          | Boundary condition initalization           :        1.094 s           1.104 s
          | Grid partitioning                          :        1.304 s           1.298 s
          | Preloading free-atom quantities on grid    :        0.622 s           0.630 s
          | Free-atom superposition energy             :        0.069 s           0.071 s
          | Total time for integrations                :       74.037 s          74.103 s
          | Total time for solution of K.-S. equations :       13.914 s          14.018 s
          | Total time for EV reorthonormalization     :        0.000 s           0.000 s
          | Total time for density & force components  :      161.234 s         161.345 s
          | Total time for mixing & preconditioning    :       11.518 s          11.516 s
          | Total time for Hartree multipole update    :        0.355 s           0.354 s
          | Total time for Hartree multipole sum       :       53.127 s          53.159 s
          | Total time for total energy evaluation     :        0.034 s           0.084 s
          | Total time for scaled ZORA corrections     :        0.000 s           0.000 s
          | Total time for cube output                 :       51.689 s          51.974 s

          Partial memory accounting:
          | Residual value for overall tracked memory usage across tasks:     0.000000 MB (should be 0.000000 MB)
          | Peak values for overall tracked memory usage:
          |   Minimum:      162.380 MB (on task 109 after allocating temp_ham_ovlp)
          |   Maximum:      162.751 MB (on task   0 after allocating temp_ham_ovlp)
          |   Average:      162.526 MB
          | Largest tracked array allocation:
          |   Minimum:       49.255 MB (overlap_matrix on task   0)
          |   Maximum:       49.255 MB (overlap_matrix on task   0)
          |   Average:       49.255 MB
          Note:  These values currently only include a subset of arrays which are explicitly tracked.
          The "true" memory usage will be greater.

          Have a nice day.
------------------------------------------------------------
