------------------------------------------------------------
          Invoking FHI-aims ...

          When using FHI-aims, please cite the following reference:

            Volker Blum, Ralf Gehrke, Felix Hanke, Paula Havu,
            Ville Havu, Xinguo Ren, Karsten Reuter, and Matthias Scheffler,
            'Ab Initio Molecular Simulations with Numeric Atom-Centered Orbitals',
            Computer Physics Communications 180, 2175-2196 (2009)

          In addition, many other developments in FHI-aims are likely important for
          your particular application. A partial list of references is given at the end of
          this file. Thank you for giving credit to the authors of these developments.

          For any questions about FHI-aims, please visit our slack channel at

            https://fhi-aims.slack.com

          and our main development and support site at

            https://aims-git.rz-berlin.mpg.de .

          The latter site, in particular, has a wiki to collect information, as well
          as an issue tracker to log discussions, suggest improvements, and report issues
          or bugs. https://aims-git.rz-berlin.mpg.de is also the main development site
          of the project and all new and updated code versions can be obtained there.
          Please send an email to aims-coordinators@fhi-berlin.mpg.de and we will add
          you to these sites. They are for you and everyone is welcome there.

------------------------------------------------------------



  Date     :  20210628, Time     :  160440.371
  Time zero on CPU 1             :   0.480690000000000E-01  s.
  Internal wall clock time zero  :           394128280.371  s.

  FHI-aims created a unique identifier for this run for later identification
  aims_uuid : 793C8202-DCFF-43BC-A47E-23922D4344B1

  Build configuration of the current instance of FHI-aims
  -------------------------------------------------------
  FHI-aims version      : 210513
  Commit number         : 300bfe3f4
  CMake host system     : Linux-4.12.14-122.63-default
  CMake version         : 3.5.2
  Fortran compiler      : /mpcdf/soft/SLE_12/packages/x86_64/intel_parallel_studio/2020.1/compilers_and_libraries_2020.1.217/linux/mpi/intel64/bin/mpiifort (Intel) version 19.1.0.20200306
  Fortran compiler flags: -O3 -ip -fp-model precise
  C compiler            : /mpcdf/soft/SLE_12/packages/x86_64/intel/19.1.1/bin/icc (Intel) version 19.1.0.20200306
  C compiler flags      : -O3 -ip -fp-model precise -std=gnu99
  C++ compiler          : /mpcdf/soft/SLE_12/packages/x86_64/intel/19.1.1/bin/icpc (Intel) version 19.1.0.20200306
  C++ compiler flags    : -O3 -ip -fp-model precise -std=gnu99
  Using MPI
  Using ScaLAPACK
  Using LibXC
  Using i-PI
  Using RLSY
  Linking against: /mpcdf/soft/SLE_12/packages/x86_64/intel_parallel_studio/2020.1/mkl/lib/intel64/libmkl_intel_lp64.so
                   /mpcdf/soft/SLE_12/packages/x86_64/intel_parallel_studio/2020.1/mkl/lib/intel64/libmkl_sequential.so
                   /mpcdf/soft/SLE_12/packages/x86_64/intel_parallel_studio/2020.1/mkl/lib/intel64/libmkl_core.so
                   /mpcdf/soft/SLE_12/packages/x86_64/intel_parallel_studio/2020.1/mkl/lib/intel64/libmkl_blacs_intelmpi_lp64.so
                   /mpcdf/soft/SLE_12/packages/x86_64/intel_parallel_studio/2020.1/mkl/lib/intel64/libmkl_scalapack_lp64.so

  Using       40 parallel tasks.
  Task        0 on host co2258 reporting.
  Task        1 on host co2258 reporting.
  Task        2 on host co2258 reporting.
  Task        3 on host co2258 reporting.
  Task        4 on host co2258 reporting.
  Task        5 on host co2258 reporting.
  Task        6 on host co2258 reporting.
  Task        7 on host co2258 reporting.
  Task        8 on host co2258 reporting.
  Task        9 on host co2258 reporting.
  Task       10 on host co2258 reporting.
  Task       11 on host co2258 reporting.
  Task       12 on host co2258 reporting.
  Task       13 on host co2258 reporting.
  Task       14 on host co2258 reporting.
  Task       15 on host co2258 reporting.
  Task       16 on host co2258 reporting.
  Task       17 on host co2258 reporting.
  Task       18 on host co2258 reporting.
  Task       19 on host co2258 reporting.
  Task       20 on host co2258 reporting.
  Task       21 on host co2258 reporting.
  Task       22 on host co2258 reporting.
  Task       23 on host co2258 reporting.
  Task       24 on host co2258 reporting.
  Task       25 on host co2258 reporting.
  Task       26 on host co2258 reporting.
  Task       27 on host co2258 reporting.
  Task       28 on host co2258 reporting.
  Task       29 on host co2258 reporting.
  Task       30 on host co2258 reporting.
  Task       31 on host co2258 reporting.
  Task       32 on host co2258 reporting.
  Task       33 on host co2258 reporting.
  Task       34 on host co2258 reporting.
  Task       35 on host co2258 reporting.
  Task       36 on host co2258 reporting.
  Task       37 on host co2258 reporting.
  Task       38 on host co2258 reporting.
  Task       39 on host co2258 reporting.

  Performing system and environment tests:
  | Environment variable OMP_NUM_THREADS correctly set to 1.
  | Checking for ScaLAPACK...
  | Testing pdtran()...
  | All pdtran() tests passed.

  Obtaining array dimensions for all initial allocations:
  
  -----------------------------------------------------------------------
  Parsing control.in (first pass over file, find array dimensions only).
  The contents of control.in will be repeated verbatim below
  unless switched off by setting 'verbatim_writeout .false.' .
  in the first line of control.in .
  -----------------------------------------------------------------------
  
  ##### Physical settings  ################
  xc                 pbe
  spin               none
  charge      0.0
  relativistic       atomic_zora scalar
  #elsi_restart read
  # SCF settings
  #####relax_geometry trm 1E-3
  
  #vdw_correction_hirshfeld
  # k-grid settings  (to be adjusted)
  #empty_states 8
  #use_dipole_correction
  #include_spin_orbit non_self_consistent
  
  mixer   pulay
  n_max_pulay        12 # high for metal
  charge_mix_param   0.1 #low for metal
  #many_body_dispersion_nl    beta=0.81 do_rpa=.true. rpa_rescale_eigs=.true. parallel_mode=k_points
  ################################################################################
  #
  #  FHI-aims code project
  # Volker Blum, Fritz Haber Institute Berlin, 2009
  #
  #  Suggested "tight" defaults for S atom (to be pasted into control.in file)
  #
  #  Revised Jan 04, 2011, following tests (SiC) done by Lydia Nemec:
  #     d and g functions of tier 2 now enabled by default.
  #
  ################################################################################
    species        S
  #     global species definitions
      nucleus             16
      mass                32.065
  #
      l_hartree           6
  #
      cut_pot             4.0          2.0  1.0
      basis_dep_cutoff    1e-4
  #
      radial_base         44 7.0
      radial_multiplier   2
      angular_grids       specified
        division   0.4665  110
        division   0.5810  194
        division   0.7139  302
        division   0.8274  434
  #      division   0.9105  590
  #      division   1.0975  770
  #      division   1.2028  974
  #      outer_grid  974
        outer_grid  434
  ################################################################################
  #
  #  Definition of "minimal" basis
  #
  ################################################################################
  #     valence basis states
      valence      3  s   2.
      valence      3  p   4.
  #     ion occupancy
      ion_occ      3  s   1.
      ion_occ      3  p   3.
  ################################################################################
  #
  #  Suggested additional basis functions. For production calculations,
  #  uncomment them one after another (the most important basis functions are
  #  listed first).
  #
  #  Constructed for dimers: 1.6 A, 1.9 A, 2.5 A, 3.25 A, 4.0 A
  #
  ################################################################################
  #  "First tier" - improvements: -652.81 meV to -45.53 meV
       ionic 3 d auto
       hydro 2 p 1.8
       hydro 4 f 7
       ionic 3 s auto
  #  "Second tier" - improvements: -30.20 meV to -1.74 meV
       hydro 4 d 6.2
       hydro 5 g 10.8
  #     hydro 4 p 4.9
  #     hydro 5 f 10
  #     hydro 1 s 0.8
  #  "Third tier" - improvements: -1.04 meV to -0.20 meV
  #     hydro 3 d 3.9
  #     hydro 3 d 2.7
  #     hydro 5 g 12
  #     hydro 4 p 10.4
  #     hydro 5 f 12.4
  #     hydro 2 s 1.9
  #  "Fourth tier" - improvements: -0.35 meV to -0.06 meV
  #     hydro 4 d 10.4
  #     hydro 4 p 7.2
  #     hydro 4 d 10
  #     hydro 5 g 19.2
  #     hydro 4 s 12
  
  ################################################################################
  #
  # For methods that use the localized form of the "resolution of identity" for
  # the two-electron Coulomb operator (RI_method LVL), particularly Hartree-Fock and
  # hybrid density functional calculations, the highest accuracy can be obtained by
  # uncommenting the line beginning with "for_aux"  below, thus adding an extra g radial
  # function to the construction of the product basis set for the expansion.
  # See Ref. New J. Phys. 17, 093020 (2015) for more information, particularly Figs. 1 and 6.
  #
  ################################################################################
  #
  # for_aux hydro 5 g 6.0
  ################################################################################
  #
  #  FHI-aims code project
  # Volker Blum, Fritz Haber Institute Berlin, 2009
  #
  #  Suggested "tight" defaults for Mo atom (to be pasted into control.in file)
  #
  ################################################################################
    species        Mo
  #     global species definitions
      nucleus             42
      mass                95.94
  #
      l_hartree           6
  #
      cut_pot             4.0  2.0  1.0
      basis_dep_cutoff    1e-4
  #
      radial_base         59 7.0
      radial_multiplier   2
      angular_grids specified
        division   0.3117   50
        division   0.6750  110
        division   1.0351  194
        division   1.2073  302
        division   1.6402  434
  #      division   1.9185  590
  #      division   2.0237  770
  #      division   2.0980  974
  #      division   2.7972 1202
  #      outer_grid  974
        outer_grid  434
  ################################################################################
  #
  #  Definition of "minimal" basis
  #
  ################################################################################
  #     valence basis states
      valence      5  s   1.
      valence      4  p   6.
      valence      4  d   5.
  #     ion occupancy
      ion_occ     5  s   0.
      ion_occ     4  p   6.
      ion_occ     4  d   4.
  ################################################################################
  #
  #  Suggested additional basis functions. For production calculations,
  #  uncomment them one after another (the most important basis functions are
  #  listed first).
  #
  #  Constructed for dimers: 1.675 A, 1.9 A, 2.375 A, 3.00 A, 4.00 A
  #
  ################################################################################
  #  "First tier"  - max. impr. -711.23  meV, min. impr. -21.07 meV
       hydro 4 f 8.4
       hydro 3 d 2.8
       ionic 5 p auto
       hydro 5 g 12
       ionic 5 s auto
  #  "Second tier" - max. impr. -39.38  meV, min. impr. -2.68 meV
  #     hydro 4 f 12.4
  #     hydro 3 d 3.3
  #     hydro 6 h 17.2
  #     hydro 4 f 7.6
  #     hydro 3 p 3.0
  #     hydro 1 s 0.65
  #  "Third tier"  - max. impr. -5.50 meV, min. impr. -0.47 meV
  #     hydro 4 f 29.2
  #     hydro 5 g 11.2
  #     hydro 3 d 6.8
  #     hydro 6 h 14.8
  #     hydro 2 p 2.3
  #     hydro 4 s 3.8
  #  "Fourth tier"  - max. impr. -0.58 meV, min. impr. -0.19 meV
  #     hydro 5 f 6.8
  #     hydro 5 d 14.8
  #     hydro 6 s 7.8
  #     hydro 5 g 20.8
  #     hydro 5 d 10.4
  #     hydro 5 p 9.8
  #  Further functions - -0.17 meV and below
  #     hydro 5 d 3.2
  compute_forces .true.
  final_forces_cleaned .true.
  
  -----------------------------------------------------------------------
  Completed first pass over input file control.in .
  -----------------------------------------------------------------------
  
  
  -----------------------------------------------------------------------
  Parsing geometry.in (first pass over file, find array dimensions only).
  The contents of geometry.in will be repeated verbatim below
  unless switched off by setting 'verbatim_writeout .false.' .
  in the first line of geometry.in .
  -----------------------------------------------------------------------
  
  #
  # temporary structure-file for finite-difference calculation of forces
  # displacement  -0.0025 of \# atom     0 direction     2
  #
  atom    2.27440633    5.75999413    7.67881618   S
  atom    2.42735398    7.58687017    6.72038194   S
  atom    0.99871951    8.87882463    7.47815803   S
  atom   -0.65263509    8.87882678    6.23034087   S
  atom   -1.92833396    5.76000217    6.02718462   S
  atom   -0.80558319    4.46810248    7.19101927   S
  atom    1.15164835    4.46809954    6.51748154   S
  atom   -2.08127592    7.58688011    6.98811755   S
  
  -----------------------------------------------------------------------
  Completed first pass over input file geometry.in .
  -----------------------------------------------------------------------
  

  Basic array size parameters:
  | Number of species                 :        2
  | Number of atoms                   :        8
  | Max. basis fn. angular momentum   :        4
  | Max. atomic/ionic basis occupied n:        5
  | Max. number of basis fn. types    :        3
  | Max. radial fns per species/type  :       10
  | Max. logarithmic grid size        :     1436
  | Max. radial integration grid size :      119
  | Max. angular integration grid size:      434
  | Max. angular grid division number :        8
  | Radial grid for Hartree potential :     1436
  | Number of spin channels           :        1

------------------------------------------------------------
          Reading file control.in.
------------------------------------------------------------
  XC: Using PBE gradient-corrected functionals.
  Spin treatment: No spin polarisation.
  Charge =   0.000000E+00: Neutral system requested explicitly.
  Scalar relativistic treatment of kinetic energy: on-site free-atom approximation to ZORA.
  Using pulay charge density mixing.
  Pulay mixing - number of memorized iterations:   12
  Charge density mixing - mixing parameter:     0.1000
 
  Reading configuration options for species S                   .
  | Found nuclear charge :  16.0000
  | Found atomic mass :    32.0650000000000      amu
  | Found l_max for Hartree potential  :   6
  | Found cutoff potl. onset [A], width [A], scale factor :    4.00000    2.00000    1.00000
  | Threshold for basis-dependent cutoff potential is   0.100000E-03
  | Found data for basic radial integration grid :    44 points, outermost radius =    7.000 A
  | Found multiplier for basic radial grid :   2
  | Found angular grid specification: user-specified.
  | Specified grid contains     5 separate shells.
  | Check grid settings after all constraints further below.
  | Found free-atom valence shell :  3 s   2.000
  | Found free-atom valence shell :  3 p   4.000
  | Found free-ion valence shell :  3 s   1.000
  | Found free-ion valence shell :  3 p   3.000
  | Found ionic basis function :  3 d , default cutoff radius.
  | Found hydrogenic basis function :  2 p   1.800
  | Found hydrogenic basis function :  4 f   7.000
  | Found ionic basis function :  3 s , default cutoff radius.
  | Found hydrogenic basis function :  4 d   6.200
  | Found hydrogenic basis function :  5 g  10.800
  Species S                   : Missing cutoff potential type.
  Defaulting to exp(1/x)/(1-x)^2 type cutoff potential.
  Species S : No 'logarithmic' tag. Using default grid for free atom:
  | Default logarithmic grid data [bohr] : 0.1000E-03 0.1000E+03 0.1012E+01
  | Will include ionic basis functions of  2.0-fold positive S                    ion.
  Species S : On-site basis accuracy parameter (for Gram-Schmidt orthonormalisation) not specified.
  Using default value basis_acc =  0.1000000E-03.
  Species S                   : Using default innermost maximum threshold i_radial=  2 for radial functions.
  Species S                   : Default cutoff onset for free atom density etc. : 0.40000000E+01 AA.
  Species S                   : Basic radial grid will be enhanced according to radial_multiplier =   2, to contain    89 grid points.
 
  Reading configuration options for species Mo                  .
  | Found nuclear charge :  42.0000
  | Found atomic mass :    95.9400000000000      amu
  | Found l_max for Hartree potential  :   6
  | Found cutoff potl. onset [A], width [A], scale factor :    4.00000    2.00000    1.00000
  | Threshold for basis-dependent cutoff potential is   0.100000E-03
  | Found data for basic radial integration grid :    59 points, outermost radius =    7.000 A
  | Found multiplier for basic radial grid :   2
  | Found angular grid specification: user-specified.
  | Specified grid contains     6 separate shells.
  | Check grid settings after all constraints further below.
  | Found free-atom valence shell :  5 s   1.000
  | Found free-atom valence shell :  4 p   6.000
  | Found free-atom valence shell :  4 d   5.000
  | Found free-ion valence shell :  5 s   0.000
  | Found free-ion valence shell :  4 p   6.000
  | Found free-ion valence shell :  4 d   4.000
  | Found hydrogenic basis function :  4 f   8.400
  | Found hydrogenic basis function :  3 d   2.800
  | Found ionic basis function :  5 p , default cutoff radius.
  | Found hydrogenic basis function :  5 g  12.000
  | Found ionic basis function :  5 s , default cutoff radius.
  Species Mo                  : Missing cutoff potential type.
  Defaulting to exp(1/x)/(1-x)^2 type cutoff potential.
  Species Mo: No 'logarithmic' tag. Using default grid for free atom:
  | Default logarithmic grid data [bohr] : 0.1000E-03 0.1000E+03 0.1012E+01
  | Will include ionic basis functions of  2.0-fold positive Mo                   ion.
  Species Mo: On-site basis accuracy parameter (for Gram-Schmidt orthonormalisation) not specified.
  Using default value basis_acc =  0.1000000E-03.
  Species Mo                  : Using default innermost maximum threshold i_radial=  2 for radial functions.
  Species Mo                  : Default cutoff onset for free atom density etc. : 0.40000000E+01 AA.
  Species Mo                  : Basic radial grid will be enhanced according to radial_multiplier =   2, to contain   119 grid points.
  Forces will be computed.
  Cleaning forces before final output.
 
  Finished reading input file 'control.in'.
 
------------------------------------------------------------


------------------------------------------------------------
          Reading geometry description geometry.in.
------------------------------------------------------------
  | The smallest distance between any two atoms is         2.06839920 AA.
  | The first atom of this pair is atom number                      1 .
  | The second atom of this pair is atom number                     7 .
  Input structure read successfully.
  The structure contains        8 atoms,  and a total of        128.000 electrons.

  Input geometry:
  | No unit cell requested.
  | Atomic structure:
  |       Atom                x [A]            y [A]            z [A]
  |    1: Species S             2.27440633        5.75999413        7.67881618
  |    2: Species S             2.42735398        7.58687017        6.72038194
  |    3: Species S             0.99871951        8.87882463        7.47815803
  |    4: Species S            -0.65263509        8.87882678        6.23034087
  |    5: Species S            -1.92833396        5.76000217        6.02718462
  |    6: Species S            -0.80558319        4.46810248        7.19101927
  |    7: Species S             1.15164835        4.46809954        6.51748154
  |    8: Species S            -2.08127592        7.58688011        6.98811755

 
  Finished reading input file 'control.in'.
 

------------------------------------------------------------
          Reading geometry description geometry.in.
------------------------------------------------------------
 
  Consistency checks for stacksize environment parameter are next.
 
  | Maximum stacksize for task 0: unlimited
  | Maximum stacksize for task 1: unlimited
  | Maximum stacksize for task 2: unlimited
  | Maximum stacksize for task 3: unlimited
  | Maximum stacksize for task 4: unlimited
  | Maximum stacksize for task 5: unlimited
  | Maximum stacksize for task 6: unlimited
  | Maximum stacksize for task 7: unlimited
  | Maximum stacksize for task 8: unlimited
  | Maximum stacksize for task 9: unlimited
  | Maximum stacksize for task 10: unlimited
  | Maximum stacksize for task 11: unlimited
  | Maximum stacksize for task 12: unlimited
  | Maximum stacksize for task 13: unlimited
  | Maximum stacksize for task 14: unlimited
  | Maximum stacksize for task 15: unlimited
  | Maximum stacksize for task 16: unlimited
  | Maximum stacksize for task 17: unlimited
  | Maximum stacksize for task 18: unlimited
  | Maximum stacksize for task 19: unlimited
  | Maximum stacksize for task 20: unlimited
  | Maximum stacksize for task 21: unlimited
  | Maximum stacksize for task 22: unlimited
  | Maximum stacksize for task 23: unlimited
  | Maximum stacksize for task 24: unlimited
  | Maximum stacksize for task 25: unlimited
  | Maximum stacksize for task 26: unlimited
  | Maximum stacksize for task 27: unlimited
  | Maximum stacksize for task 28: unlimited
  | Maximum stacksize for task 29: unlimited
  | Maximum stacksize for task 30: unlimited
  | Maximum stacksize for task 31: unlimited
  | Maximum stacksize for task 32: unlimited
  | Maximum stacksize for task 33: unlimited
  | Maximum stacksize for task 34: unlimited
  | Maximum stacksize for task 35: unlimited
  | Maximum stacksize for task 36: unlimited
  | Maximum stacksize for task 37: unlimited
  | Maximum stacksize for task 38: unlimited
  | Maximum stacksize for task 39: unlimited
  | Current stacksize for task 0: unlimited
  | Current stacksize for task 1: unlimited
  | Current stacksize for task 2: unlimited
  | Current stacksize for task 3: unlimited
  | Current stacksize for task 4: unlimited
  | Current stacksize for task 5: unlimited
  | Current stacksize for task 6: unlimited
  | Current stacksize for task 7: unlimited
  | Current stacksize for task 8: unlimited
  | Current stacksize for task 9: unlimited
  | Current stacksize for task 10: unlimited
  | Current stacksize for task 11: unlimited
  | Current stacksize for task 12: unlimited
  | Current stacksize for task 13: unlimited
  | Current stacksize for task 14: unlimited
  | Current stacksize for task 15: unlimited
  | Current stacksize for task 16: unlimited
  | Current stacksize for task 17: unlimited
  | Current stacksize for task 18: unlimited
  | Current stacksize for task 19: unlimited
  | Current stacksize for task 20: unlimited
  | Current stacksize for task 21: unlimited
  | Current stacksize for task 22: unlimited
  | Current stacksize for task 23: unlimited
  | Current stacksize for task 24: unlimited
  | Current stacksize for task 25: unlimited
  | Current stacksize for task 26: unlimited
  | Current stacksize for task 27: unlimited
  | Current stacksize for task 28: unlimited
  | Current stacksize for task 29: unlimited
  | Current stacksize for task 30: unlimited
  | Current stacksize for task 31: unlimited
  | Current stacksize for task 32: unlimited
  | Current stacksize for task 33: unlimited
  | Current stacksize for task 34: unlimited
  | Current stacksize for task 35: unlimited
  | Current stacksize for task 36: unlimited
  | Current stacksize for task 37: unlimited
  | Current stacksize for task 38: unlimited
  | Current stacksize for task 39: unlimited
 
  Consistency checks for the contents of control.in are next.
 
  MPI_IN_PLACE appears to work with this MPI implementation.
  | Keeping use_mpi_in_place .true. (see manual).
  Target number of points in a grid batch is not set. Defaulting to  100
  Method for grid partitioning is not set. Defaulting to parallel hash+maxmin partitioning.
  Batch size limit is not set. Defaulting to    200
  By default, will store active basis functions for each batch.
  If in need of memory, prune_basis_once .false. can be used to disable this option.
  communication_type for Hartree potential was not specified.
  Defaulting to calc_hartree .
  Pulay mixer: Number of initial linear mixing iterations not set.
  Defaulting to    0 iterations.
  Work space size for distributed Hartree potential not set.
  Defaulting to   0.200000E+03 MB.
  Algorithm-dependent basis array size parameters:
  | n_max_pulay                         :       12
  Maximum number of self-consistency iterations not provided.
  Presetting  1000 iterations.
  Presetting      1001 iterations before the initial mixing cycle
  is restarted anyway using the sc_init_iter criterion / keyword.
  Presetting a factor      1.000 between actual scf density residual
  and density convergence criterion sc_accuracy_rho below which sc_init_iter
  takes no effect.
 * No s.c.f. convergence criteria (sc_accuracy_*) were provided in control.in.
 * The run will proceed with a reasonable default guess, but please check whether.
 * the s.c.f. cycles seem to take too much or too little time.
  Geometry relaxation not requested: no relaxation will be performed.
  Forces evaluation will include force correction term due to incomplete self-consistency (default).
 * Notice: The s.c.f. convergence criterion sc_accuracy_rho was not provided.
 * We used to stop in this case, and ask the user to provide reasonable
 * scf convergence criteria. However, this led some users to employ criteria
 * that led to extremely long run times, e.g., for simple relaxation.
 * We now preset a default value for sc_accuracy_rho if it is not set.
 * You may still wish to check if this setting is too tight or too loose for your needs.
 * Based on n_atoms and forces and force-correction status, FHI-aims chose sc_accuracy_rho =  0.923760E-05 .
  Force calculation: scf convergence accuracy of forces not set.
  Defaulting to 'sc_accuracy_forces not_checked'.
  Handling of forces: Unphysical translation and rotation will be removed from forces.
  No accuracy limit for integral partition fn. given. Defaulting to  0.1000E-14.
  No threshold value for u(r) in integrations given. Defaulting to  0.1000E-05.
  No occupation type (smearing scheme) given. Defaulting to Gaussian broadening, width =  0.1000E-01 eV.
  The width will be adjusted in iteration number     2 of the first full s.c.f. cycle only.
  S.C.F. convergence parameters will be adjusted in iteration number     2 of the first full s.c.f. cycle only.
  No accuracy for occupation numbers given. Defaulting to  0.1000E-12.
  No threshold value for occupation numbers given. Defaulting to  0.0000E+00.
  No accuracy for fermi level given. Defaulting to  0.1000E-19.
  Maximum # of iterations to find E_F not set. Defaulting to  200.
  Preferred method for the eigenvalue solver ('KS_method') not specified in 'control.in'.
  Calling BLACS routine to test compilation state
  Since ScaLAPACK support is enabled, defaulting to ELPA (via ELSI).
  Will not use alltoall communication since running on < 1024 CPUs.
  Threshold for basis singularities not set.
  Default threshold for basis singularities:  0.1000E-04
  partition_type (choice of integration weights) for integrals was not specified.
  | Using a version of the partition function of Stratmann and coworkers ('stratmann_sparse').
  | At each grid point, the set of atoms used to build the partition table is smoothly restricted to
  | only those atoms whose free-atom density would be non-zero at that grid point.
  Partitioning for Hartree potential was not defined. Using partition_type for integrals.
  | Adjusted default value of keyword multip_moments_threshold to:       0.10000000E-11
  | This value may affect high angular momentum components of the Hartree potential in periodic systems.
  No q(lm)/r^(l+1) cutoff set for long-range Hartree potential.
  | Using default value of  0.100000E-09 .
  | Verify using the multipole_threshold keyword.
  Defaulting to new monopole extrapolation.
  Density update method: automatic selection selected.
  Charge integration errors on the 3D integration grid will be compensated
  by explicit normalization and distribution of residual charges.
  Use the "compensate_multipole_errors" flag to change this behaviour.
  Set 'collect_eigenvectors' to be '.true.' for use_density_matrix .false.
 
  Consistency checks for the contents of geometry.in are next.
 
  Number of empty states per atom not set in control.in - providing a guess from actual geometry.
  | Total number of empty states used during s.c.f. cycle:       24
  If you use a very high smearing, use empty_states (per atom!) in control.in to increase this value.

  Structure-dependent array size parameters: 
  | Maximum number of distinct radial functions  :       26
  | Maximum number of basis functions            :      312
  | Number of Kohn-Sham states (occupied + empty):       88
------------------------------------------------------------

------------------------------------------------------------
          Preparing all fixed parts of the calculation.
------------------------------------------------------------
  Determining machine precision:
    2.225073858507201E-308
  Setting up grids for atomic and cluster calculations.

  Creating wave function, potential, and density for free atoms.

  Species: S

  List of occupied orbitals and eigenvalues:
    n    l              occ      energy [Ha]    energy [eV]
    1    0           2.0000       -88.680731     -2413.1255
    2    0           2.0000        -7.781719      -211.7513
    3    0           2.0000        -0.633662       -17.2428
    2    1           6.0000        -5.751976      -156.5192
    3    1           4.0000        -0.257086        -6.9957


  Species: Mo

  List of occupied orbitals and eigenvalues:
    n    l              occ      energy [Ha]    energy [eV]
    1    0           2.0000      -745.344654    -20281.8600
    2    0           2.0000      -103.288246     -2810.6162
    3    0           2.0000       -17.516687      -476.6533
    4    0           2.0000        -2.358559       -64.1796
    5    0           1.0000        -0.145159        -3.9500
    2    1           6.0000       -92.308627     -2511.8455
    3    1           6.0000       -13.936005      -379.2180
    4    1           6.0000        -1.408138       -38.3174
    3    2          10.0000        -8.119011      -220.9295
    4    2           5.0000        -0.132984        -3.6187


  Adding cutoff potential to free-atom effective potential.
  Creating fixed part of basis set: Ionic, confined, hydrogenic.
 
  S                    ion:

  List of free ionic orbitals and eigenvalues:
    n    l      energy [Ha]    energy [eV]
    1    0       -89.703778     -2440.9640
    2    0        -8.775428      -238.7916
    3    0        -1.470343       -40.0101
    2    1        -6.747660      -183.6132
    3    1        -1.048627       -28.5346


  List of ionic basis orbitals and eigenvalues:
    n    l      energy [Ha]    energy [eV]    outer radius [A]
    3    2        -0.495605       -13.4861       5.386362
    3    0        -1.470336       -40.0099       3.967934

 
  S                    hydrogenic:
 
  List of hydrogenic basis orbitals: 
    n    l      effective z      eigenvalue [eV]  inner max. [A]     outer max. [A]     outer radius [A]   
    2    1         1.800000       -11.0118           1.168531           1.168531           5.452614
    4    3         7.000000       -41.6672           1.212182           1.212182           5.066981
    4    2         6.200000       -32.6848           0.582121           1.814567           5.386362
    5    4        10.800000       -63.4785           1.227092           1.227092           4.766538
 
 
  Mo                   ion:

  List of free ionic orbitals and eigenvalues:
    n    l      energy [Ha]    energy [eV]
    1    0      -746.048685    -20301.0176
    2    0      -103.980912     -2829.4646
    3    0       -18.206601      -495.4268
    4    0        -3.040545       -82.7374
    2    1       -93.001013     -2530.6863
    3    1       -14.625827      -397.9890
    4    1        -2.084855       -56.7318
    3    2        -8.808854      -239.7011
    4    2        -0.765435       -20.8285


  List of ionic basis orbitals and eigenvalues:
    n    l      energy [Ha]    energy [eV]    outer radius [A]
    5    1        -0.465587       -12.6693       5.456393
    5    0        -0.650331       -17.6964       5.390095

 
  Mo                   hydrogenic:
 
  List of hydrogenic basis orbitals: 
    n    l      effective z      eigenvalue [eV]  inner max. [A]     outer max. [A]     outer radius [A]   
    4    3         8.400000       -60.0010           1.009788           1.009788           4.487018
    3    2         2.800000       -11.8048           1.687401           1.687401           5.456393
    5    4        12.000000       -78.3687           1.100005           1.100005           4.432498
 
  Creating atomic-like basis functions for current effective potential.

  Species S                   :

  List of atomic basis orbitals and eigenvalues:
    n    l      energy [Ha]    energy [eV]    outer radius [A]
    1    0       -88.680731     -2413.1255       0.682391
    2    0        -7.781719      -211.7513       2.289014
    3    0        -0.633662       -17.2428       5.256262
    2    1        -5.751976      -156.5192       2.555240
    3    1        -0.257086        -6.9957       5.386362


  Species Mo                  :

  List of atomic basis orbitals and eigenvalues:
    n    l      energy [Ha]    energy [eV]    outer radius [A]
    1    0      -745.344654    -20281.8600       0.247552
    2    0      -103.288246     -2810.6162       0.682864
    3    0       -17.516687      -476.6533       1.626637
    4    0        -2.358559       -64.1796       4.220963
    5    0        -0.145159        -3.9500       5.456393
    2    1       -92.308627     -2511.8455       0.699766
    3    1       -13.936005      -379.2180       1.793761
    4    1        -1.408138       -38.3174       4.828511
    3    2        -8.119011      -220.9295       2.181285
    4    2        -0.132984        -3.6187       5.390095

  Assembling full basis from fixed parts.
  | Species S :   atomic orbital   1 s accepted.
  | Species S :   atomic orbital   2 s accepted.
  | Species S :    ionic orbital   3 s accepted.
  | Species S :   atomic orbital   3 s accepted.
  | Species S :   atomic orbital   2 p accepted.
  | Species S :   atomic orbital   3 p accepted.
  | Species S :    hydro orbital   2 p accepted.
  | Species S :    ionic orbital   3 d accepted.
  | Species S :    hydro orbital   4 d accepted.
  | Species S :    hydro orbital   4 f accepted.
  | Species S :    hydro orbital   5 g accepted.
  | Species Mo :   atomic orbital   1 s accepted.
  | Species Mo :   atomic orbital   2 s accepted.
  | Species Mo :   atomic orbital   3 s accepted.
  | Species Mo :   atomic orbital   4 s accepted.
  | Species Mo :    ionic orbital   5 s accepted.
  | Species Mo :   atomic orbital   5 s accepted.
  | Species Mo :   atomic orbital   2 p accepted.
  | Species Mo :   atomic orbital   3 p accepted.
  | Species Mo :   atomic orbital   4 p accepted.
  | Species Mo :    ionic orbital   5 p accepted.
  | Species Mo :   atomic orbital   3 d accepted.
  | Species Mo :   atomic orbital   4 d accepted.
  | Species Mo :    hydro orbital   3 d accepted.
  | Species Mo :    hydro orbital   4 f accepted.
  | Species Mo :    hydro orbital   5 g accepted.
 
  Basis size parameters after reduction:
  | Total number of radial functions:       26
  | Total number of basis functions :      312
 
  Per-task memory consumption for arrays in subroutine allocate_ext:
  |           9.566776MB.
  Testing on-site integration grid accuracy.
  |  Species  Function  <phi|h_atom|phi> (log., in eV)  <phi|h_atom|phi> (rad., in eV)
           1        1              -2413.1254568977              -2413.1254096663
           1        2               -211.7513411281               -211.7513404762
           1        3                -16.9725280787                -16.9725279206
           1        4                  7.6024436204                  7.6024549059
           1        5               -156.5192206929               -156.5192205451
           1        6                 -6.9959757887                 -6.9959777655
           1        7                  6.8896462808                  6.8895564741
           1        8                  6.0214250550                  6.0214220200
           1        9                 19.6206468977                 19.6206494558
           1       10                 24.7008710786                 24.7008710738
           1       11                 47.5292252001                 47.5292260486
           2       12             -20281.8599610543             -20281.8584300616
           2       13              -2810.6161812280              -2810.6161551921
           2       14               -476.6533163555               -476.6533136395
           2       15                -64.1796433667                -64.1796426456
           2       16                 -3.3691762756                 -3.3691802887
           2       17                  4.4704608512                  4.4699102345
           2       18              -2511.8455406047              -2511.8455385741
           2       19               -379.2179896350               -379.2179882338
           2       20                -38.3173891619                -38.3173886619
           2       21                  0.2493245095                  0.2492931069
           2       22               -220.9295301098               -220.9295297081
           2       23                 -3.6195697699                 -3.6195754704
           2       24                  7.1428000922                  7.1426882355
           2       25                 23.3975871087                 23.3975871819
           2       26                 50.2449608881                 50.2449608586

  Preparing densities etc. for the partition functions (integrals / Hartree potential).

  Preparations completed.
  max(cpu_time)          :      0.435 s.
  Wall clock time (cpu1) :      0.441 s.
------------------------------------------------------------

------------------------------------------------------------
          Begin self-consistency loop: Initialization.

          Date     :  20210628, Time     :  160440.876
------------------------------------------------------------

  Initializing index lists of integration centers etc. from given atomic structure:
  | Number of centers in hartree potential         :         8
  | Number of centers in hartree multipole         :         8
  | Number of centers in electron density summation:         8
  | Number of centers in basis integrals           :         8
  | Number of centers in integrals                 :         8
  | Number of centers in hamiltonian               :         8
  * Using 40 tasks for Scalapack Eigenvalue solver.
  Detailed listing of tasks and assigned k-points:
  (for non-periodic systems, the "k-point" denotes an internal label only)
   Task     0 k-point     1 on co2258
   Task     1 k-point     1 on co2258
   Task     2 k-point     1 on co2258
   Task     3 k-point     1 on co2258
   Task     4 k-point     1 on co2258
   Task     5 k-point     1 on co2258
   Task     6 k-point     1 on co2258
   Task     7 k-point     1 on co2258
   Task     8 k-point     1 on co2258
   Task     9 k-point     1 on co2258
   Task    10 k-point     1 on co2258
   Task    11 k-point     1 on co2258
   Task    12 k-point     1 on co2258
   Task    13 k-point     1 on co2258
   Task    14 k-point     1 on co2258
   Task    15 k-point     1 on co2258
   Task    16 k-point     1 on co2258
   Task    17 k-point     1 on co2258
   Task    18 k-point     1 on co2258
   Task    19 k-point     1 on co2258
   Task    20 k-point     1 on co2258
   Task    21 k-point     1 on co2258
   Task    22 k-point     1 on co2258
   Task    23 k-point     1 on co2258
   Task    24 k-point     1 on co2258
   Task    25 k-point     1 on co2258
   Task    26 k-point     1 on co2258
   Task    27 k-point     1 on co2258
   Task    28 k-point     1 on co2258
   Task    29 k-point     1 on co2258
   Task    30 k-point     1 on co2258
   Task    31 k-point     1 on co2258
   Task    32 k-point     1 on co2258
   Task    33 k-point     1 on co2258
   Task    34 k-point     1 on co2258
   Task    35 k-point     1 on co2258
   Task    36 k-point     1 on co2258
   Task    37 k-point     1 on co2258
   Task    38 k-point     1 on co2258
   Task    39 k-point     1 on co2258
  Tasks:    40 split into      8 X      5 BLACS grid
  Calculating block size based on n_basis =          312  max_nprow =            8  max_npcol =            5
  ScaLAPACK block size set to:           16
  Allocating        0.023 MB for ovlp
  Allocating        0.023 MB for ham
  Allocating        0.023 MB for eigenvec
  Required Scalapack workspace - INTEGER:            1  REAL:             1
  Partitioning the integration grid into batches with parallel hashing+maxmin method.
  | Number of batches:     2320
  | Maximal batch size:     200
  | Minimal batch size:      22
  | Average batch size:      84.490
  | Standard deviation of batch sizes:      20.980

  Integration load balanced across    40 MPI tasks.
  Work distribution over tasks is as follows:
  Task     0 has       4831 integration points.
  Task     1 has       4930 integration points.
  Task     2 has       4860 integration points.
  Task     3 has       4938 integration points.
  Task     4 has       4932 integration points.
  Task     5 has       4962 integration points.
  Task     6 has       4840 integration points.
  Task     7 has       4927 integration points.
  Task     8 has       4932 integration points.
  Task     9 has       4858 integration points.
  Task    10 has       4830 integration points.
  Task    11 has       4929 integration points.
  Task    12 has       4935 integration points.
  Task    13 has       4831 integration points.
  Task    14 has       4929 integration points.
  Task    15 has       4878 integration points.
  Task    16 has       4857 integration points.
  Task    17 has       4844 integration points.
  Task    18 has       4941 integration points.
  Task    19 has       4967 integration points.
  Task    20 has       4925 integration points.
  Task    21 has       4971 integration points.
  Task    22 has       4852 integration points.
  Task    23 has       4881 integration points.
  Task    24 has       4883 integration points.
  Task    25 has       4944 integration points.
  Task    26 has       4941 integration points.
  Task    27 has       4904 integration points.
  Task    28 has       4855 integration points.
  Task    29 has       4845 integration points.
  Task    30 has       4834 integration points.
  Task    31 has       4887 integration points.
  Task    32 has       4928 integration points.
  Task    33 has       4934 integration points.
  Task    34 has       4926 integration points.
  Task    35 has       4932 integration points.
  Task    36 has       4964 integration points.
  Task    37 has       4843 integration points.
  Task    38 has       4947 integration points.
  Task    39 has       4869 integration points.
  Initializing partition tables, free-atom densities, potentials, etc. across the integration grid (initialize_grid_storage).
  | initialize_grid_storage: Actual outermost partition radius vs. multipole_radius_free
  | (-- VB: in principle, multipole_radius_free should be larger, hence this output)
  | Species        1: Confinement radius =              6.000000000000000 AA, multipole_radius_free =              6.012827091137924 AA.
  | Species        1: outer_partition_radius set to              6.012827091137924 AA .
  | Species        2: Confinement radius =              6.000000000000000 AA, multipole_radius_free =              6.016994434057369 AA.
  | Species        2: outer_partition_radius set to              6.016994434057369 AA .
  | The sparse table of interatomic distances needs          0.71 kbyte instead of         0.51 kbyte of memory.
  | Using the partition_type stratmann_smoother will reduce your memory usage.
  | Net number of integration points:   196016
  | of which are non-zero points    :   181186
  Renormalizing the initial density to the exact electron count on the 3D integration grid.
  | Initial density: Formal number of electrons (from input files) :     128.0000000000
  | Integrated number of electrons on 3D grid     :     127.9999792570
  | Charge integration error                      :      -0.0000207430
  | Normalization factor for density and gradient :       1.0000001621
  Renormalizing the free-atom superposition density to the exact electron count on the 3D integration grid.
  | Formal number of electrons (from input files) :     128.0000000000
  | Integrated number of electrons on 3D grid     :     127.9999792570
  | Charge integration error                      :      -0.0000207430
  | Normalization factor for density and gradient :       1.0000001621
  Obtaining max. number of non-zero basis functions in each batch (get_n_compute_maxes).
  | Maximal number of non-zero basis functions:      291 in task     0
  | Maximal number of non-zero basis functions:      292 in task     1
  | Maximal number of non-zero basis functions:      291 in task     2
  | Maximal number of non-zero basis functions:      296 in task     3
  | Maximal number of non-zero basis functions:      303 in task     4
  | Maximal number of non-zero basis functions:      302 in task     5
  | Maximal number of non-zero basis functions:      298 in task     6
  | Maximal number of non-zero basis functions:      291 in task     7
  | Maximal number of non-zero basis functions:      295 in task     8
  | Maximal number of non-zero basis functions:      304 in task     9
  | Maximal number of non-zero basis functions:      303 in task    10
  | Maximal number of non-zero basis functions:      303 in task    11
  | Maximal number of non-zero basis functions:      298 in task    12
  | Maximal number of non-zero basis functions:      297 in task    13
  | Maximal number of non-zero basis functions:      298 in task    14
  | Maximal number of non-zero basis functions:      298 in task    15
  | Maximal number of non-zero basis functions:      301 in task    16
  | Maximal number of non-zero basis functions:      292 in task    17
  | Maximal number of non-zero basis functions:      304 in task    18
  | Maximal number of non-zero basis functions:      298 in task    19
  | Maximal number of non-zero basis functions:      298 in task    20
  | Maximal number of non-zero basis functions:      304 in task    21
  | Maximal number of non-zero basis functions:      295 in task    22
  | Maximal number of non-zero basis functions:      303 in task    23
  | Maximal number of non-zero basis functions:      297 in task    24
  | Maximal number of non-zero basis functions:      298 in task    25
  | Maximal number of non-zero basis functions:      304 in task    26
  | Maximal number of non-zero basis functions:      298 in task    27
  | Maximal number of non-zero basis functions:      298 in task    28
  | Maximal number of non-zero basis functions:      302 in task    29
  | Maximal number of non-zero basis functions:      299 in task    30
  | Maximal number of non-zero basis functions:      298 in task    31
  | Maximal number of non-zero basis functions:      294 in task    32
  | Maximal number of non-zero basis functions:      299 in task    33
  | Maximal number of non-zero basis functions:      298 in task    34
  | Maximal number of non-zero basis functions:      301 in task    35
  | Maximal number of non-zero basis functions:      300 in task    36
  | Maximal number of non-zero basis functions:      304 in task    37
  | Maximal number of non-zero basis functions:      304 in task    38
  | Maximal number of non-zero basis functions:      302 in task    39
  Selecting the method for density update.
  Loop over occupied states selected for charge density update.
  Allocating        0.209 MB for KS_eigenvector
  Integrating Hamiltonian matrix: batch-based integration.
  Time summed over all CPUs for integration: real work        2.384 s, elapsed        2.535 s
  Integrating overlap matrix.
  Time summed over all CPUs for integration: real work        0.912 s, elapsed        0.981 s
  Deallocating overlap matrix.

  Updating Kohn-Sham eigenvalues and eigenvectors using ELSI and the ELPA eigensolver.
  Overlap matrix is not singular
  | Lowest and highest eigenvalues :  0.4520E-03,  0.4895E+01
  Finished singularity check of overlap matrix
  | Time :     0.012 s
  Starting ELPA eigensolver
  Finished Cholesky decomposition
  | Time :     0.004 s
  Finished transformation to standard eigenproblem
  | Time :     0.002 s
  Finished solving standard eigenproblem
  | Time :     0.009 s
  Finished back-transformation of eigenvectors
  | Time :     0.001 s

  Obtaining occupation numbers and chemical potential using ELSI.
  | Chemical potential (Fermi level):    -5.59988491 eV
  Writing Kohn-Sham eigenvalues.

  State    Occupation    Eigenvalue [Ha]    Eigenvalue [eV]
      1       2.00000         -88.694295        -2413.49456
      2       2.00000         -88.694266        -2413.49378
      3       2.00000         -88.694260        -2413.49360
      4       2.00000         -88.694234        -2413.49290
      5       2.00000         -88.694234        -2413.49289
      6       2.00000         -88.694234        -2413.49289
      7       2.00000         -88.694233        -2413.49288
      8       2.00000         -88.694232        -2413.49285
      9       2.00000          -7.797432         -212.17893
     10       2.00000          -7.797390         -212.17779
     11       2.00000          -7.797382         -212.17756
     12       2.00000          -7.797369         -212.17720
     13       2.00000          -7.797358         -212.17691
     14       2.00000          -7.797338         -212.17635
     15       2.00000          -7.797323         -212.17595
     16       2.00000          -7.797311         -212.17562
     17       2.00000          -5.768610         -156.97186
     18       2.00000          -5.768550         -156.97024
     19       2.00000          -5.768544         -156.97007
     20       2.00000          -5.768445         -156.96736
     21       2.00000          -5.768443         -156.96732
     22       2.00000          -5.768336         -156.96440
     23       2.00000          -5.768314         -156.96380
     24       2.00000          -5.768262         -156.96240
     25       2.00000          -5.767491         -156.94141
     26       2.00000          -5.767442         -156.94007
     27       2.00000          -5.767439         -156.93999
     28       2.00000          -5.767386         -156.93855
     29       2.00000          -5.767380         -156.93840
     30       2.00000          -5.767340         -156.93732
     31       2.00000          -5.767321         -156.93679
     32       2.00000          -5.767303         -156.93629
     33       2.00000          -5.766424         -156.91239
     34       2.00000          -5.766394         -156.91157
     35       2.00000          -5.766387         -156.91138
     36       2.00000          -5.766361         -156.91066
     37       2.00000          -5.766360         -156.91065
     38       2.00000          -5.766359         -156.91061
     39       2.00000          -5.766358         -156.91059
     40       2.00000          -5.766357         -156.91055
     41       2.00000          -0.821190          -22.34571
     42       2.00000          -0.792427          -21.56303
     43       2.00000          -0.792284          -21.55916
     44       2.00000          -0.716219          -19.48930
     45       2.00000          -0.716198          -19.48873
     46       2.00000          -0.612790          -16.67486
     47       2.00000          -0.612657          -16.67125
     48       2.00000          -0.542731          -14.76847
     49       2.00000          -0.450114          -12.24821
     50       2.00000          -0.425046          -11.56609
     51       2.00000          -0.425004          -11.56496
     52       2.00000          -0.393040          -10.69516
     53       2.00000          -0.368012          -10.01411
     54       2.00000          -0.368003          -10.01387
     55       2.00000          -0.361727           -9.84309
     56       2.00000          -0.361676           -9.84171
     57       2.00000          -0.329895           -8.97690
     58       2.00000          -0.277585           -7.55348
     59       2.00000          -0.277554           -7.55263
     60       2.00000          -0.270370           -7.35713
     61       2.00000          -0.270359           -7.35684
     62       2.00000          -0.262965           -7.15564
     63       2.00000          -0.262938           -7.15492
     64       2.00000          -0.256724           -6.98582
     65       0.00000          -0.132844           -3.61487
     66       0.00000          -0.132781           -3.61316
     67       0.00000          -0.120091           -3.26785
     68       0.00000          -0.085756           -2.33353
     69       0.00000          -0.084550           -2.30072
     70       0.00000          -0.084452           -2.29805
     71       0.00000          -0.083040           -2.25963
     72       0.00000          -0.083008           -2.25875
     73       0.00000           0.028275            0.76941
     74       0.00000           0.049404            1.34434
     75       0.00000           0.049412            1.34456
     76       0.00000           0.064489            1.75483
     77       0.00000           0.064493            1.75496
     78       0.00000           0.079473            2.16258
     79       0.00000           0.079515            2.16371
     80       0.00000           0.091447            2.48839
     81       0.00000           0.093456            2.54307
     82       0.00000           0.093657            2.54854
     83       0.00000           0.114779            3.12329
     84       0.00000           0.117771            3.20471
     85       0.00000           0.117840            3.20660
     86       0.00000           0.123117            3.35018
     87       0.00000           0.123126            3.35042
     88       0.00000           0.141222            3.84284

  Highest occupied state (VBM) at     -6.98581548 eV
  | Occupation number:      2.00000000

  Lowest unoccupied state (CBM) at    -3.61487008 eV
  | Occupation number:      0.00000000

  Overall HOMO-LUMO gap:      3.37094540 eV.
  Calculating total energy contributions from superposition of free atom densities.

  Total energy components:
  | Sum of eigenvalues            :       -1842.63600415 Ha      -50140.67680254 eV
  | XC energy correction          :        -204.89757657 Ha       -5575.54673910 eV
  | XC potential correction       :         264.82109461 Ha        7206.14862907 eV
  | Free-atom electrostatic energy:       -1415.64384508 Ha      -38521.62898347 eV
  | Hartree energy correction     :           0.00000000 Ha           0.00000000 eV
  | Entropy correction            :           0.00000000 Ha           0.00000000 eV
  | ---------------------------
  | Total energy                  :       -3198.35633119 Ha      -87031.70389604 eV
  | Total energy, T -> 0          :       -3198.35633119 Ha      -87031.70389604 eV  <-- do not rely on this value for anything but (periodic) metals
  | Electronic free energy        :       -3198.35633119 Ha      -87031.70389604 eV

  Derived energy quantities:
  | Kinetic energy                :        3210.59319187 Ha       87364.68581709 eV
  | Electrostatic energy          :       -6204.05194649 Ha     -168820.84297402 eV
  | Energy correction for multipole
  | error in Hartree potential    :           0.00000000 Ha           0.00000000 eV
  | Sum of eigenvalues per atom                           :       -6267.58460032 eV
  | Total energy (T->0) per atom                          :      -10878.96298700 eV  <-- do not rely on this value for anything but (periodic) metals
  | Electronic free energy per atom                       :      -10878.96298700 eV
  Initialize hartree_potential_storage
  Max. number of atoms included in rho_multipole:            8

  End scf initialization - timings             :  max(cpu_time)    wall_clock(cpu1)
  | Time for scf. initialization               :        0.240 s           0.243 s
  | Boundary condition initialization          :        0.000 s           0.000 s
  | Integration                                :        0.092 s           0.092 s
  | Solution of K.-S. eqns.                    :        0.031 s           0.032 s
  | Grid partitioning                          :        0.089 s           0.089 s
  | Preloading free-atom quantities on grid    :        0.020 s           0.020 s
  | Free-atom superposition energy             :        0.005 s           0.006 s
  | Total energy evaluation                    :        0.000 s           0.000 s

  Partial memory accounting:
  | Current value for overall tracked memory usage:
  |   Minimum:        0.624 MB (on task 24)
  |   Maximum:        0.653 MB (on task  0)
  |   Average:        0.639 MB
  | Peak value for overall tracked memory usage:
  |   Minimum:        3.008 MB (on task 17 after allocating wave)
  |   Maximum:        3.121 MB (on task  9 after allocating wave)
  |   Average:        3.067 MB
  | Largest tracked array allocation so far:
  |   Minimum:        0.646 MB (hamiltonian_shell on task  0)
  |   Maximum:        0.916 MB (all_coords on task 21)
  |   Average:        0.704 MB
  Note:  These values currently only include a subset of arrays which are explicitly tracked.
  The "true" memory usage will be greater.
------------------------------------------------------------
  Evaluating new KS density.
  Integration grid: deviation in total charge (<rho> - N_e) =  -2.842171E-14

  Time for density update prior                :  max(cpu_time)    wall_clock(cpu1)
  | self-consistency iterative process         :        0.050 s           0.051 s

------------------------------------------------------------
          Begin self-consistency iteration #    1

  Date     :  20210628, Time     :  160441.171
------------------------------------------------------------
  Pulay mixing of updated and previous charge densities.
  Renormalizing the density to the exact electron count on the 3D integration grid.
  | Formal number of electrons (from input files) :     128.0000000000
  | Integrated number of electrons on 3D grid     :     128.0000000000
  | Charge integration error                      :       0.0000000000
  | Normalization factor for density and gradient :       1.0000000000

  Evaluating partitioned Hartree potential by multipole expansion.
  | Original multipole sum: apparent total charge =   0.150610E-12
  | Sum of charges compensated after spline to logarithmic grids =   0.191470E-06
  | Analytical far-field extrapolation by fixed multipoles:
  | Hartree multipole sum: apparent total charge =   0.150614E-12
  Summing up the Hartree potential.
  Time summed over all CPUs for potential: real work        0.821 s, elapsed        0.852 s
  | RMS charge density error from multipole expansion :   0.575232E-03

  Integrating Hamiltonian matrix: batch-based integration.
  Time summed over all CPUs for integration: real work        2.322 s, elapsed        2.501 s

  Updating Kohn-Sham eigenvalues and eigenvectors using ELSI and the ELPA eigensolver.
  Starting ELPA eigensolver
  Finished transformation to standard eigenproblem
  | Time :     0.002 s
  Finished solving standard eigenproblem
  | Time :     0.007 s
  Finished back-transformation of eigenvectors
  | Time :     0.000 s

  Obtaining occupation numbers and chemical potential using ELSI.
  | Chemical potential (Fermi level):    -5.54551617 eV
  Writing Kohn-Sham eigenvalues.

  State    Occupation    Eigenvalue [Ha]    Eigenvalue [eV]
      1       2.00000         -88.690637        -2413.39504
      2       2.00000         -88.690618        -2413.39451
      3       2.00000         -88.690610        -2413.39429
      4       2.00000         -88.690608        -2413.39425
      5       2.00000         -88.690607        -2413.39420
      6       2.00000         -88.690605        -2413.39414
      7       2.00000         -88.690599        -2413.39399
      8       2.00000         -88.690596        -2413.39391
      9       2.00000          -7.793972         -212.08477
     10       2.00000          -7.793942         -212.08395
     11       2.00000          -7.793940         -212.08389
     12       2.00000          -7.793920         -212.08335
     13       2.00000          -7.793915         -212.08323
     14       2.00000          -7.793893         -212.08262
     15       2.00000          -7.793881         -212.08228
     16       2.00000          -7.793872         -212.08205
     17       2.00000          -5.765545         -156.88846
     18       2.00000          -5.765500         -156.88723
     19       2.00000          -5.765488         -156.88690
     20       2.00000          -5.765387         -156.88416
     21       2.00000          -5.765385         -156.88411
     22       2.00000          -5.765275         -156.88112
     23       2.00000          -5.765259         -156.88068
     24       2.00000          -5.765212         -156.87939
     25       2.00000          -5.764143         -156.85031
     26       2.00000          -5.764111         -156.84943
     27       2.00000          -5.764101         -156.84918
     28       2.00000          -5.764047         -156.84769
     29       2.00000          -5.764045         -156.84763
     30       2.00000          -5.763999         -156.84640
     31       2.00000          -5.763985         -156.84602
     32       2.00000          -5.763969         -156.84558
     33       2.00000          -5.762377         -156.80227
     34       2.00000          -5.762355         -156.80165
     35       2.00000          -5.762346         -156.80142
     36       2.00000          -5.762339         -156.80123
     37       2.00000          -5.762338         -156.80119
     38       2.00000          -5.762336         -156.80113
     39       2.00000          -5.762331         -156.80101
     40       2.00000          -5.762328         -156.80093
     41       2.00000          -0.818717          -22.27842
     42       2.00000          -0.789927          -21.49500
     43       2.00000          -0.789787          -21.49121
     44       2.00000          -0.713654          -19.41952
     45       2.00000          -0.713633          -19.41895
     46       2.00000          -0.610100          -16.60168
     47       2.00000          -0.609968          -16.59808
     48       2.00000          -0.539814          -14.68909
     49       2.00000          -0.447862          -12.18694
     50       2.00000          -0.422581          -11.49902
     51       2.00000          -0.422540          -11.49791
     52       2.00000          -0.390662          -10.63045
     53       2.00000          -0.365510           -9.94603
     54       2.00000          -0.365501           -9.94578
     55       2.00000          -0.359348           -9.77837
     56       2.00000          -0.359300           -9.77705
     57       2.00000          -0.327179           -8.90299
     58       2.00000          -0.274797           -7.47760
     59       2.00000          -0.274765           -7.47673
     60       2.00000          -0.267697           -7.28440
     61       2.00000          -0.267686           -7.28410
     62       2.00000          -0.260145           -7.07891
     63       2.00000          -0.260118           -7.07816
     64       2.00000          -0.253946           -6.91023
     65       0.00000          -0.130632           -3.55469
     66       0.00000          -0.130569           -3.55297
     67       0.00000          -0.117770           -3.20468
     68       0.00000          -0.083598           -2.27481
     69       0.00000          -0.082373           -2.24150
     70       0.00000          -0.082272           -2.23873
     71       0.00000          -0.080631           -2.19408
     72       0.00000          -0.080600           -2.19323
     73       0.00000           0.030249            0.82311
     74       0.00000           0.051377            1.39804
     75       0.00000           0.051385            1.39825
     76       0.00000           0.066287            1.80376
     77       0.00000           0.066291            1.80388
     78       0.00000           0.080980            2.20357
     79       0.00000           0.081020            2.20466
     80       0.00000           0.092983            2.53020
     81       0.00000           0.095133            2.58870
     82       0.00000           0.095672            2.60338
     83       0.00000           0.116769            3.17745
     84       0.00000           0.119719            3.25772
     85       0.00000           0.119788            3.25961
     86       0.00000           0.124973            3.40070
     87       0.00000           0.124982            3.40094
     88       0.00000           0.143213            3.89703

  Highest occupied state (VBM) at     -6.91022872 eV
  | Occupation number:      2.00000000

  Lowest unoccupied state (CBM) at    -3.55468842 eV
  | Occupation number:      0.00000000

  Overall HOMO-LUMO gap:      3.35554030 eV.

  Total energy components:
  | Sum of eigenvalues            :       -1842.23130428 Ha      -50129.66435880 eV
  | XC energy correction          :        -204.92141511 Ha       -5576.19541890 eV
  | XC potential correction       :         264.85177818 Ha        7206.98357144 eV
  | Free-atom electrostatic energy:       -1415.64384508 Ha      -38521.62898347 eV
  | Hartree energy correction     :          -0.40839988 Ha         -11.11312612 eV
  | Entropy correction            :           0.00000000 Ha           0.00000000 eV
  | ---------------------------
  | Total energy                  :       -3198.35318618 Ha      -87031.61831586 eV
  | Total energy, T -> 0          :       -3198.35318618 Ha      -87031.61831586 eV  <-- do not rely on this value for anything but (periodic) metals
  | Electronic free energy        :       -3198.35318618 Ha      -87031.61831586 eV

  Derived energy quantities:
  | Kinetic energy                :        3210.66116809 Ha       87366.53554413 eV
  | Electrostatic energy          :       -6204.09293916 Ha     -168821.95844108 eV
  | Energy correction for multipole
  | error in Hartree potential    :          -0.00027248 Ha          -0.00741448 eV
  | Sum of eigenvalues per atom                           :       -6266.20804485 eV
  | Total energy (T->0) per atom                          :      -10878.95228948 eV  <-- do not rely on this value for anything but (periodic) metals
  | Electronic free energy per atom                       :      -10878.95228948 eV
  Evaluating new KS density.
  Integration grid: deviation in total charge (<rho> - N_e) =   8.526513E-14

  Self-consistency convergence accuracy:
  | Change of charge density      :  0.2417E+00
  | Change of sum of eigenvalues  :  0.1101E+02 eV
  | Change of total energy        :  0.8558E-01 eV


------------------------------------------------------------
  End self-consistency iteration #     1       :  max(cpu_time)    wall_clock(cpu1)
  | Time for this iteration                    :        0.149 s           0.150 s
  | Charge density update                      :        0.048 s           0.048 s
  | Density mixing                             :        0.001 s           0.001 s
  | Hartree multipole update                   :        0.003 s           0.002 s
  | Hartree multipole summation                :        0.022 s           0.022 s
  | Integration                                :        0.064 s           0.064 s
  | Solution of K.-S. eqns.                    :        0.011 s           0.011 s
  | Total energy evaluation                    :        0.001 s           0.000 s

  Partial memory accounting:
  | Current value for overall tracked memory usage:
  |   Minimum:        0.624 MB (on task 24)
  |   Maximum:        0.653 MB (on task  0)
  |   Average:        0.639 MB
  | Peak value for overall tracked memory usage:
  |   Minimum:        3.008 MB (on task 17 after allocating wave)
  |   Maximum:        3.121 MB (on task  9 after allocating wave)
  |   Average:        3.067 MB
  | Largest tracked array allocation so far:
  |   Minimum:        1.332 MB (gradient_basis_wave on task  0)
  |   Maximum:        1.392 MB (gradient_basis_wave on task  9)
  |   Average:        1.368 MB
  Note:  These values currently only include a subset of arrays which are explicitly tracked.
  The "true" memory usage will be greater.
------------------------------------------------------------

------------------------------------------------------------
          Begin self-consistency iteration #    2

  Date     :  20210628, Time     :  160441.322
------------------------------------------------------------
  Pulay mixing of updated and previous charge densities.
  Renormalizing the density to the exact electron count on the 3D integration grid.
  | Formal number of electrons (from input files) :     128.0000000000
  | Integrated number of electrons on 3D grid     :     128.0000000000
  | Charge integration error                      :       0.0000000000
  | Normalization factor for density and gradient :       1.0000000000

  Evaluating partitioned Hartree potential by multipole expansion.
  | Original multipole sum: apparent total charge =   0.138663E-12
  | Sum of charges compensated after spline to logarithmic grids =   0.105502E-05
  | Analytical far-field extrapolation by fixed multipoles:
  | Hartree multipole sum: apparent total charge =   0.138583E-12
  Summing up the Hartree potential.
  Time summed over all CPUs for potential: real work        0.821 s, elapsed        0.851 s
  | RMS charge density error from multipole expansion :   0.512860E-02

  Integrating Hamiltonian matrix: batch-based integration.
  Time summed over all CPUs for integration: real work        2.318 s, elapsed        2.481 s

  Updating Kohn-Sham eigenvalues and eigenvectors using ELSI and the ELPA eigensolver.
  Starting ELPA eigensolver
  Finished transformation to standard eigenproblem
  | Time :     0.001 s
  Finished solving standard eigenproblem
  | Time :     0.008 s
  Finished back-transformation of eigenvectors
  | Time :     0.001 s

  Obtaining occupation numbers and chemical potential using ELSI.
  | Chemical potential (Fermi level):    -5.13294537 eV
  Highest occupied state (VBM) at     -6.33504412 eV
  | Occupation number:      2.00000000

  Lowest unoccupied state (CBM) at    -3.09890612 eV
  | Occupation number:      0.00000000

  Overall HOMO-LUMO gap:      3.23613800 eV.

  Checking to see if s.c.f. parameters should be adjusted.
  Kept the default occupation width. Value:   0.010000 eV.

  Total energy components:
  | Sum of eigenvalues            :       -1839.27409209 Ha      -50049.19452064 eV
  | XC energy correction          :        -205.12102582 Ha       -5581.62710255 eV
  | XC potential correction       :         265.10729413 Ha        7213.93651420 eV
  | Free-atom electrostatic energy:       -1415.64384508 Ha      -38521.62898347 eV
  | Hartree energy correction     :          -3.41203200 Ha         -92.84611459 eV
  | Entropy correction            :           0.00000000 Ha           0.00000000 eV
  | ---------------------------
  | Total energy                  :       -3198.34370085 Ha      -87031.36020705 eV
  | Total energy, T -> 0          :       -3198.34370085 Ha      -87031.36020705 eV  <-- do not rely on this value for anything but (periodic) metals
  | Electronic free energy        :       -3198.34370085 Ha      -87031.36020705 eV

  Derived energy quantities:
  | Kinetic energy                :        3211.01765436 Ha       87376.23602916 eV
  | Electrostatic energy          :       -6204.24032940 Ha     -168825.96913366 eV
  | Energy correction for multipole
  | error in Hartree potential    :          -0.00255968 Ha          -0.06965239 eV
  | Sum of eigenvalues per atom                           :       -6256.14931508 eV
  | Total energy (T->0) per atom                          :      -10878.92002588 eV  <-- do not rely on this value for anything but (periodic) metals
  | Electronic free energy per atom                       :      -10878.92002588 eV
  Evaluating new KS density.
  Integration grid: deviation in total charge (<rho> - N_e) =   0.000000E+00

  Self-consistency convergence accuracy:
  | Change of charge density      :  0.2148E+00
  | Change of sum of eigenvalues  :  0.8047E+02 eV
  | Change of total energy        :  0.2581E+00 eV


------------------------------------------------------------
  End self-consistency iteration #     2       :  max(cpu_time)    wall_clock(cpu1)
  | Time for this iteration                    :        0.148 s           0.148 s
  | Charge density update                      :        0.048 s           0.048 s
  | Density mixing                             :        0.001 s           0.001 s
  | Hartree multipole update                   :        0.002 s           0.002 s
  | Hartree multipole summation                :        0.022 s           0.022 s
  | Integration                                :        0.063 s           0.064 s
  | Solution of K.-S. eqns.                    :        0.011 s           0.011 s
  | Total energy evaluation                    :        0.000 s           0.000 s

  Partial memory accounting:
  | Current value for overall tracked memory usage:
  |   Minimum:        0.625 MB (on task 24)
  |   Maximum:        0.654 MB (on task  0)
  |   Average:        0.640 MB
  | Peak value for overall tracked memory usage:
  |   Minimum:        3.008 MB (on task 17 after allocating wave)
  |   Maximum:        3.121 MB (on task  9 after allocating wave)
  |   Average:        3.067 MB
  | Largest tracked array allocation so far:
  |   Minimum:        1.332 MB (gradient_basis_wave on task  0)
  |   Maximum:        1.392 MB (gradient_basis_wave on task  9)
  |   Average:        1.368 MB
  Note:  These values currently only include a subset of arrays which are explicitly tracked.
  The "true" memory usage will be greater.
------------------------------------------------------------

------------------------------------------------------------
          Begin self-consistency iteration #    3

  Date     :  20210628, Time     :  160441.470
------------------------------------------------------------
  Pulay mixing of updated and previous charge densities.
  Renormalizing the density to the exact electron count on the 3D integration grid.
  | Formal number of electrons (from input files) :     128.0000000000
  | Integrated number of electrons on 3D grid     :     128.0000000000
  | Charge integration error                      :      -0.0000000000
  | Normalization factor for density and gradient :       1.0000000000

  Evaluating partitioned Hartree potential by multipole expansion.
  | Original multipole sum: apparent total charge =   0.220603E-13
  | Sum of charges compensated after spline to logarithmic grids =   0.949063E-06
  | Analytical far-field extrapolation by fixed multipoles:
  | Hartree multipole sum: apparent total charge =   0.220581E-13
  Summing up the Hartree potential.
  Time summed over all CPUs for potential: real work        0.821 s, elapsed        0.856 s
  | RMS charge density error from multipole expansion :   0.549989E-02

  Integrating Hamiltonian matrix: batch-based integration.
  Time summed over all CPUs for integration: real work        2.316 s, elapsed        2.484 s

  Updating Kohn-Sham eigenvalues and eigenvectors using ELSI and the ELPA eigensolver.
  Starting ELPA eigensolver
  Finished transformation to standard eigenproblem
  | Time :     0.001 s
  Finished solving standard eigenproblem
  | Time :     0.007 s
  Finished back-transformation of eigenvectors
  | Time :     0.000 s

  Obtaining occupation numbers and chemical potential using ELSI.
  | Chemical potential (Fermi level):    -5.23176180 eV
  Highest occupied state (VBM) at     -6.46793240 eV
  | Occupation number:      2.00000000

  Lowest unoccupied state (CBM) at    -3.22428835 eV
  | Occupation number:      0.00000000

  Overall HOMO-LUMO gap:      3.24364405 eV.

  Total energy components:
  | Sum of eigenvalues            :       -1840.53337632 Ha      -50083.46138821 eV
  | XC energy correction          :        -205.04703954 Ha       -5579.61383360 eV
  | XC potential correction       :         265.00971816 Ha        7211.28133717 eV
  | Free-atom electrostatic energy:       -1415.64384508 Ha      -38521.62898347 eV
  | Hartree energy correction     :          -2.12868581 Ha         -57.92448816 eV
  | Entropy correction            :           0.00000000 Ha           0.00000000 eV
  | ---------------------------
  | Total energy                  :       -3198.34322860 Ha      -87031.34735628 eV
  | Total energy, T -> 0          :       -3198.34322860 Ha      -87031.34735628 eV  <-- do not rely on this value for anything but (periodic) metals
  | Electronic free energy        :       -3198.34322860 Ha      -87031.34735628 eV

  Derived energy quantities:
  | Kinetic energy                :        3210.17979286 Ha       87353.43665761 eV
  | Electrostatic energy          :       -6203.47598191 Ha     -168805.17018029 eV
  | Energy correction for multipole
  | error in Hartree potential    :          -0.00311812 Ha          -0.08484832 eV
  | Sum of eigenvalues per atom                           :       -6260.43267353 eV
  | Total energy (T->0) per atom                          :      -10878.91841953 eV  <-- do not rely on this value for anything but (periodic) metals
  | Electronic free energy per atom                       :      -10878.91841953 eV
  Evaluating new KS density.
  Integration grid: deviation in total charge (<rho> - N_e) =   2.842171E-14

  Self-consistency convergence accuracy:
  | Change of charge density      :  0.2689E-01
  | Change of sum of eigenvalues  : -0.3427E+02 eV
  | Change of total energy        :  0.1285E-01 eV


------------------------------------------------------------
  End self-consistency iteration #     3       :  max(cpu_time)    wall_clock(cpu1)
  | Time for this iteration                    :        0.148 s           0.148 s
  | Charge density update                      :        0.048 s           0.048 s
  | Density mixing                             :        0.001 s           0.001 s
  | Hartree multipole update                   :        0.003 s           0.002 s
  | Hartree multipole summation                :        0.022 s           0.022 s
[...]
   Multipole                     :  0.203402E-01  0.124995E-01  0.663160E-01
   Hartree pot. SCF incomplete   : -0.105553E-03 -0.266966E-04  0.108812E-03
   Pulay + GGA                   : -0.237133E+02 -0.827051E+01  0.222680E+02
   ----------------------------------------------------------------
   Total forces(   2)            :  0.225114E-02  0.114848E-01 -0.138360E-01
  atom #    3
   Hellmann-Feynman              :  0.408104E+01  0.198716E+02  0.267647E+02
   Ionic forces                  :  0.000000E+00  0.000000E+00  0.000000E+00
   Multipole                     :  0.223968E-01  0.302971E-01 -0.594035E-01
   Hartree pot. SCF incomplete   : -0.702037E-05 -0.827541E-04 -0.154811E-03
   Pulay + GGA                   : -0.410582E+01 -0.199015E+02 -0.267025E+02
   ----------------------------------------------------------------
   Total forces(   3)            : -0.238877E-02  0.250834E-03  0.264424E-02
  atom #    4
   Hellmann-Feynman              : -0.408229E+01  0.198776E+02 -0.267655E+02
   Ionic forces                  :  0.000000E+00  0.000000E+00  0.000000E+00
   Multipole                     : -0.223359E-01  0.303872E-01  0.594106E-01
   Hartree pot. SCF incomplete   :  0.202013E-04 -0.849144E-04  0.142313E-03
   Pulay + GGA                   :  0.410479E+01 -0.199078E+02  0.267056E+02
   ----------------------------------------------------------------
   Total forces(   4)            :  0.177338E-03  0.822978E-04 -0.313188E-03
  atom #    5
   Hellmann-Feynman              : -0.155779E+02 -0.822950E+01 -0.285977E+02
   Ionic forces                  :  0.000000E+00  0.000000E+00  0.000000E+00
   Multipole                     : -0.397740E-01 -0.127056E-01  0.566313E-01
   Hartree pot. SCF incomplete   :  0.637719E-04  0.335098E-04  0.145557E-03
   Pulay + GGA                   :  0.156179E+02  0.824189E+01  0.285406E+02
   ----------------------------------------------------------------
   Total forces(   5)            :  0.272310E-03 -0.282749E-03 -0.281910E-03
  atom #    6
   Hellmann-Feynman              : -0.121796E+02 -0.198733E+02  0.241760E+02
   Ionic forces                  :  0.000000E+00  0.000000E+00  0.000000E+00
   Multipole                     : -0.260829E-02 -0.304676E-01 -0.634135E-01
   Hartree pot. SCF incomplete   :  0.616636E-04  0.843134E-04 -0.149001E-03
   Pulay + GGA                   :  0.121792E+02  0.199047E+02 -0.241096E+02
   ----------------------------------------------------------------
   Total forces(   6)            : -0.287746E-02  0.103809E-02  0.290283E-02
  atom #    7
   Hellmann-Feynman              :  0.121631E+02 -0.199181E+02 -0.241871E+02
   Ionic forces                  :  0.000000E+00  0.000000E+00  0.000000E+00
   Multipole                     :  0.281991E-02 -0.304064E-01  0.635918E-01
   Hartree pot. SCF incomplete   : -0.547273E-04  0.804029E-04  0.113542E-03
   Pulay + GGA                   : -0.121724E+02  0.199390E+02  0.241066E+02
   ----------------------------------------------------------------
   Total forces(   7)            : -0.656898E-02 -0.948444E-02 -0.167154E-01
  atom #    8
   Hellmann-Feynman              : -0.236785E+02  0.822947E+01  0.223451E+02
   Ionic forces                  :  0.000000E+00  0.000000E+00  0.000000E+00
   Multipole                     : -0.203159E-01  0.126838E-01 -0.661473E-01
   Hartree pot. SCF incomplete   :  0.105314E-03 -0.383397E-04 -0.129384E-03
   Pulay + GGA                   :  0.236991E+02 -0.824223E+01 -0.222788E+02
   ----------------------------------------------------------------
   Total forces(   8)            :  0.408858E-03 -0.119516E-03 -0.127512E-04


  Self-consistency convergence accuracy:
  | Change of charge density      :  0.2441E-05
  | Change of sum of eigenvalues  :  0.4572E-03 eV
  | Change of total energy        :  0.2774E-07 eV
  | Change of forces              :  0.1098E+01 eV/A

  Writing Kohn-Sham eigenvalues.

  State    Occupation    Eigenvalue [Ha]    Eigenvalue [eV]
      1       2.00000         -88.678479        -2413.06420
      2       2.00000         -88.678474        -2413.06407
      3       2.00000         -88.678469        -2413.06392
      4       2.00000         -88.678444        -2413.06323
      5       2.00000         -88.678440        -2413.06314
      6       2.00000         -88.678434        -2413.06298
      7       2.00000         -88.678429        -2413.06283
      8       2.00000         -88.678419        -2413.06255
      9       2.00000          -7.780040         -211.70566
     10       2.00000          -7.780023         -211.70519
     11       2.00000          -7.780021         -211.70513
     12       2.00000          -7.779993         -211.70438
     13       2.00000          -7.779990         -211.70430
     14       2.00000          -7.779973         -211.70383
     15       2.00000          -7.779955         -211.70336
     16       2.00000          -7.779947         -211.70313
     17       2.00000          -5.754900         -156.59881
     18       2.00000          -5.754855         -156.59758
     19       2.00000          -5.754848         -156.59738
     20       2.00000          -5.754740         -156.59445
     21       2.00000          -5.754737         -156.59437
     22       2.00000          -5.754630         -156.59145
     23       2.00000          -5.754616         -156.59108
     24       2.00000          -5.754574         -156.58993
     25       2.00000          -5.751163         -156.49710
     26       2.00000          -5.751131         -156.49622
     27       2.00000          -5.751128         -156.49616
     28       2.00000          -5.751072         -156.49464
     29       2.00000          -5.751069         -156.49456
     30       2.00000          -5.751024         -156.49331
     31       2.00000          -5.751008         -156.49290
     32       2.00000          -5.750987         -156.49231
     33       2.00000          -5.744131         -156.30576
     34       2.00000          -5.744127         -156.30564
     35       2.00000          -5.744122         -156.30553
     36       2.00000          -5.744122         -156.30552
     37       2.00000          -5.744102         -156.30497
     38       2.00000          -5.744100         -156.30491
     39       2.00000          -5.744092         -156.30469
     40       2.00000          -5.744090         -156.30464
     41       2.00000          -0.804313          -21.88648
     42       2.00000          -0.775372          -21.09896
     43       2.00000          -0.775240          -21.09534
     44       2.00000          -0.698704          -19.01270
     45       2.00000          -0.698684          -19.01217
     46       2.00000          -0.594387          -16.17410
     47       2.00000          -0.594260          -16.17063
     48       2.00000          -0.522639          -14.22172
     49       2.00000          -0.434832          -11.83237
     50       2.00000          -0.408037          -11.10324
     51       2.00000          -0.408000          -11.10225
     52       2.00000          -0.376348          -10.24095
     53       2.00000          -0.350739           -9.54410
     54       2.00000          -0.350729           -9.54382
     55       2.00000          -0.345173           -9.39263
     56       2.00000          -0.345128           -9.39142
     57       2.00000          -0.310524           -8.44978
     58       2.00000          -0.258028           -7.02129
     59       2.00000          -0.257997           -7.02046
     60       2.00000          -0.251561           -6.84532
     61       2.00000          -0.251549           -6.84499
     62       2.00000          -0.242968           -6.61150
     63       2.00000          -0.242945           -6.61086
     64       2.00000          -0.237137           -6.45283
     65       0.00000          -0.117753           -3.20421
     66       0.00000          -0.117688           -3.20246
     67       0.00000          -0.104099           -2.83267
     68       0.00000          -0.071259           -1.93905
     69       0.00000          -0.069564           -1.89292
     70       0.00000          -0.069452           -1.88988
     71       0.00000          -0.066393           -1.80664
     72       0.00000          -0.066366           -1.80592
     73       0.00000           0.042751            1.16332
     74       0.00000           0.063462            1.72688
     75       0.00000           0.063469            1.72709
     76       0.00000           0.077492            2.10868
     77       0.00000           0.077498            2.10883
     78       0.00000           0.090065            2.45080
     79       0.00000           0.090103            2.45183
     80       0.00000           0.102240            2.78209
     81       0.00000           0.105678            2.87565
     82       0.00000           0.108150            2.94292
     83       0.00000           0.129255            3.51721
     84       0.00000           0.131558            3.57987
     85       0.00000           0.131626            3.58173
     86       0.00000           0.136376            3.71098
     87       0.00000           0.136385            3.71123
     88       0.00000           0.155181            4.22269

  Highest occupied state (VBM) at     -6.45283313 eV
  | Occupation number:      2.00000000

  Lowest unoccupied state (CBM) at    -3.20421151 eV
  | Occupation number:      0.00000000

  Overall HOMO-LUMO gap:      3.24862162 eV.
  | Chemical Potential                          :    -5.21983354 eV

  Self-consistency cycle converged.


------------------------------------------------------------
  End self-consistency iteration #    12       :  max(cpu_time)    wall_clock(cpu1)
  | Time for this iteration                    :        0.441 s           0.442 s
  | Charge density & force component update    :        0.243 s           0.243 s
  | Density mixing                             :        0.003 s           0.003 s
  | Hartree multipole update                   :        0.002 s           0.003 s
  | Hartree multipole summation                :        0.070 s           0.070 s
  | Hartree pot. SCF incomplete forces         :        0.049 s           0.049 s
  | Integration                                :        0.063 s           0.063 s
  | Solution of K.-S. eqns.                    :        0.010 s           0.010 s
  | Total energy evaluation                    :        0.000 s           0.000 s

  Partial memory accounting:
  | Current value for overall tracked memory usage:
  |   Minimum:        0.628 MB (on task 24)
  |   Maximum:        0.658 MB (on task  0)
  |   Average:        0.643 MB
  | Peak value for overall tracked memory usage:
  |   Minimum:        5.574 MB (on task  0 after allocating hessian_basis_wave)
  |   Maximum:        5.763 MB (on task  9 after allocating hessian_basis_wave)
  |   Average:        5.678 MB
  | Largest tracked array allocation so far:
  |   Minimum:        2.664 MB (hessian_basis_wave on task  0)
  |   Maximum:        2.783 MB (hessian_basis_wave on task  9)
  |   Average:        2.735 MB
  Note:  These values currently only include a subset of arrays which are explicitly tracked.
  The "true" memory usage will be greater.
------------------------------------------------------------
  Removing unitary transformations (pure translations, rotations) from forces on atoms.
  Atomic forces before filtering:
  | Net force on center of mass :  -0.716644E-05 -0.909033E-04  0.237496E-04 eV/A
  | Net torque on center of mass:  -0.129585E-04 -0.185026E-03 -0.775778E-05 eV
  Atomic forces after filtering:
  | Net force on center of mass :   0.871124E-19 -0.784011E-18 -0.445192E-17 eV/A
  | Net torque on center of mass:   0.875283E-17  0.708755E-17  0.428710E-17 eV

  Energy and forces in a compact form:
  | Total energy uncorrected      :         -0.870313469251906E+05 eV
  | Total energy corrected        :         -0.870313469251906E+05 eV  <-- do not rely on this value for anything but (periodic) metals
  | Electronic free energy        :         -0.870313469251906E+05 eV
  Total atomic forces (unitary forces cleaned) [eV/Ang]:
  |    1          0.872567855878288E-02         -0.304881407264626E-02          0.256167710585825E-01
  |    2          0.225083944551911E-02          0.114966656286147E-01         -0.138553990679607E-01
  |    3         -0.238366496514318E-02          0.262033283313249E-03          0.263627850923282E-02
  |    4          0.173092206341753E-03          0.938237441532731E-04         -0.308772258484241E-03
  |    5          0.267200284069709E-03         -0.271383039654445E-03         -0.269618888364610E-03
  |    6         -0.287356654781937E-02          0.104906823228432E-02          0.290600073727304E-02
  |    7         -0.657014536408255E-02         -0.947269154407098E-02         -0.167269358647927E-01
  |    8          0.410566382331651E-03         -0.108702231993857E-03          0.167577451383466E-05

  ------------------------------------ 
  Start decomposition of the XC Energy 
  ------------------------------------ 
  X and C from original XC functional choice 
  Hartree-Fock Energy :          0.000000000 Ha              0.000000000 eV
  X Energy            :       -200.052773315 Ha          -5443.712934970 eV
  C Energy            :         -5.002950050 Ha           -136.137197446 eV
  Total XC Energy     :       -205.055723365 Ha          -5579.850132416 eV
  ------------------------------------ 
  LDA X and C from self-consistent density 
  X Energy LDA        :       -185.463808751 Ha          -5046.727010745 eV
  C Energy LDA        :         -9.954359556 Ha           -270.871905325 eV
  ------------------------------------ 
  End decomposition of the XC Energy 
  ------------------------------------ 

------------------------------------------------------------

------------------------------------------------------------------------------
  Final output of selected total energy values:

  The following output summarizes some interesting total energy values
  at the end of a run (AFTER all relaxation, molecular dynamics, etc.).

  | Total energy of the DFT / Hartree-Fock s.c.f. calculation      :         -87031.346925191 eV
  | Final zero-broadening corrected energy (caution - metals only) :         -87031.346925191 eV
  | For reference only, the value of 1 Hartree used in FHI-aims is :             27.211384500 eV

  Before relying on these values, please be sure to understand exactly which
  total energy value is referred to by a given number. Different objects may
  all carry the same name 'total energy'. Definitions:

  Total energy of the DFT / Hartree-Fock s.c.f. calculation:
  | Note that this energy does not include ANY quantities calculated after the
  | s.c.f. cycle, in particular not ANY RPA, MP2, etc. many-body perturbation terms.

  Final zero-broadening corrected energy:
  | For metallic systems only, a broadening of the occupation numbers at the Fermi
  | level can be extrapolated back to zero broadening by an electron-gas inspired
  | formula. For all systems that are not real metals, this value can be
  | meaningless and should be avoided.

------------------------------------------------------------------------------
  Methods described in the following list of references were used in this FHI-aims run.
  If you publish the results, please make sure to cite these reference if they apply.
  FHI-aims is an academic code, and for our developers (often, Ph.D. students
  and postdocs), scientific credit in the community is essential.
  Thank you for helping us!

  For any use of FHI-aims, please cite:

    Volker Blum, Ralf Gehrke, Felix Hanke, Paula Havu, Ville Havu,
    Xinguo Ren, Karsten Reuter, and Matthias Scheffler
    'Ab initio molecular simulations with numeric atom-centered orbitals'
    Computer Physics Communications 180, 2175-2196 (2009)
    http://dx.doi.org/10.1016/j.cpc.2009.06.022


  The ELSI infrastructure was used in your run to solve the Kohn-Sham electronic structure.
  Please check out http://elsi-interchange.org to learn more.
  If scalability is important for your project, please acknowledge ELSI by citing:

    V. W-z. Yu, F. Corsetti, A. Garcia, W. P. Huhn, M. Jacquelin, W. Jia,
    B. Lange, L. Lin, J. Lu, W. Mi, A. Seifitokaldani, A. Vazquez-Mayagoitia,
    C. Yang, H. Yang, and V. Blum
    'ELSI: A unified software interface for Kohn-Sham electronic structure solvers'
    Computer Physics Communications 222, 267-285 (2018).
    http://dx.doi.org/10.1016/j.cpc.2017.09.007


  For the real-space grid partitioning and parallelization used in this calculation, please cite:

    Ville Havu, Volker Blum, Paula Havu, and Matthias Scheffler,
    'Efficient O(N) integration for all-electron electronic structure calculation'
    'using numerically tabulated basis functions'
    Journal of Computational Physics 228, 8367-8379 (2009).
    http://dx.doi.org/10.1016/j.jcp.2009.08.008

  Of course, there are many other important community references, e.g., those cited in the
  above references. Our list is limited to references that describe implementations in the
  FHI-aims code. The reason is purely practical (length of this list) - please credit others as well.

------------------------------------------------------------
          Leaving FHI-aims.
          Date     :  20210628, Time     :  160443.261

          Computational steps:
          | Number of self-consistency cycles          :           12
          | Number of SCF (re)initializations          :            1

          Detailed time accounting                     :  max(cpu_time)    wall_clock(cpu1)
          | Total time                                 :        2.882 s           2.890 s
          | Preparation time                           :        0.435 s           0.441 s
          | Boundary condition initalization           :        0.000 s           0.000 s
          | Grid partitioning                          :        0.089 s           0.089 s
          | Preloading free-atom quantities on grid    :        0.020 s           0.020 s
          | Free-atom superposition energy             :        0.005 s           0.006 s
          | Total time for integrations                :        0.851 s           0.853 s
          | Total time for solution of K.-S. equations :        0.152 s           0.153 s
          | Total time for density & force components  :        0.819 s           0.820 s
          | Total time for mixing                      :        0.023 s           0.021 s
          | Total time for Hartree multipole update    :        0.030 s           0.030 s
          | Total time for Hartree multipole sum       :        0.311 s           0.311 s
          | Total time for total energy evaluation     :        0.003 s           0.002 s
          | Total time NSC force correction            :        0.049 s           0.049 s
          | Total time for scaled ZORA corrections     :        0.000 s           0.000 s

          Partial memory accounting:
          | Residual value for overall tracked memory usage across tasks:     0.000000 MB (should be 0.000000 MB)
          | Peak values for overall tracked memory usage:
          |   Minimum:        5.574 MB (on task  0 after allocating hessian_basis_wave)
          |   Maximum:        5.763 MB (on task  9 after allocating hessian_basis_wave)
          |   Average:        5.678 MB
          | Largest tracked array allocation:
          |   Minimum:        2.664 MB (hessian_basis_wave on task  0)
          |   Maximum:        2.783 MB (hessian_basis_wave on task  9)
          |   Average:        2.735 MB
          Note:  These values currently only include a subset of arrays which are explicitly tracked.
          The "true" memory usage will be greater.

          Have a nice day.
------------------------------------------------------------
