------------------------------------------------------------
          Invoking FHI-aims ...

          When using FHI-aims, please cite the following reference:

            Volker Blum, Ralf Gehrke, Felix Hanke, Paula Havu,
            Ville Havu, Xinguo Ren, Karsten Reuter, and Matthias Scheffler,
            'Ab Initio Molecular Simulations with Numeric Atom-Centered Orbitals',
            Computer Physics Communications 180, 2175-2196 (2009)

          In addition, many other developments in FHI-aims are likely important for
          your particular application. A partial list of references is given at the end of
          this file. Thank you for giving credit to the authors of these developments.

          For any questions about FHI-aims, please visit our slack channel at

            https://fhi-aims.slack.com

          and our main development and support site at

            https://aims-git.rz-berlin.mpg.de .

          The latter site, in particular, has a wiki to collect information, as well
          as an issue tracker to log discussions, suggest improvements, and report issues
          or bugs. https://aims-git.rz-berlin.mpg.de is also the main development site
          of the project and all new and updated code versions can be obtained there.
          Please send an email to aims-coordinators@fhi-berlin.mpg.de and we will add
          you to these sites. They are for you and everyone is welcome there.

------------------------------------------------------------



  Date     :  20210722, Time     :  102447.421
  Time zero on CPU 1             :   0.578590000000000E-01  s.
  Internal wall clock time zero  :           396181487.421  s.

  FHI-aims created a unique identifier for this run for later identification
  aims_uuid : DFB791CD-C73C-40D6-A171-F082B83BA508

  Build configuration of the current instance of FHI-aims
  -------------------------------------------------------
  FHI-aims version      : 210413
  Commit number         : e4873593e
  CMake host system     : Linux-4.12.14-122.57-default
  CMake version         : 3.5.2
  Fortran compiler      : /mpcdf/soft/SLE_12/packages/x86_64/intel_parallel_studio/2020.1/compilers_and_libraries_2020.1.217/linux/mpi/intel64/bin/mpiifort (Intel) version 19.1.0.20200306
  Fortran compiler flags: -O3 -ip -fp-model precise
  C compiler            : /mpcdf/soft/SLE_12/packages/x86_64/intel/19.1.1/bin/icc (Intel) version 19.1.0.20200306
  C compiler flags      : -O3 -ip -fp-model precise -std=gnu99
  C++ compiler          : /mpcdf/soft/SLE_12/packages/x86_64/intel/19.1.1/bin/icpc (Intel) version 19.1.0.20200306
  C++ compiler flags    : -O3 -ip -fp-model precise -std=gnu99
  Using MPI
  Using ScaLAPACK
  Using LibXC
  Using i-PI
  Using RLSY
  Linking against: /mpcdf/soft/SLE_12/packages/x86_64/intel_parallel_studio/2020.1/mkl/lib/intel64/libmkl_intel_lp64.so
                   /mpcdf/soft/SLE_12/packages/x86_64/intel_parallel_studio/2020.1/mkl/lib/intel64/libmkl_sequential.so
                   /mpcdf/soft/SLE_12/packages/x86_64/intel_parallel_studio/2020.1/mkl/lib/intel64/libmkl_core.so
                   /mpcdf/soft/SLE_12/packages/x86_64/intel_parallel_studio/2020.1/mkl/lib/intel64/libmkl_blacs_intelmpi_lp64.so
                   /mpcdf/soft/SLE_12/packages/x86_64/intel_parallel_studio/2020.1/mkl/lib/intel64/libmkl_scalapack_lp64.so

  Using       40 parallel tasks.
  Task        0 on host co2242 reporting.
  Task        1 on host co2242 reporting.
  Task        2 on host co2242 reporting.
  Task        3 on host co2242 reporting.
  Task        4 on host co2242 reporting.
  Task        5 on host co2242 reporting.
  Task        6 on host co2242 reporting.
  Task        7 on host co2242 reporting.
  Task        8 on host co2242 reporting.
  Task        9 on host co2242 reporting.
  Task       10 on host co2242 reporting.
  Task       11 on host co2242 reporting.
  Task       12 on host co2242 reporting.
  Task       13 on host co2242 reporting.
  Task       14 on host co2242 reporting.
  Task       15 on host co2242 reporting.
  Task       16 on host co2242 reporting.
  Task       17 on host co2242 reporting.
  Task       18 on host co2242 reporting.
  Task       19 on host co2242 reporting.
  Task       20 on host co2242 reporting.
  Task       21 on host co2242 reporting.
  Task       22 on host co2242 reporting.
  Task       23 on host co2242 reporting.
  Task       24 on host co2242 reporting.
  Task       25 on host co2242 reporting.
  Task       26 on host co2242 reporting.
  Task       27 on host co2242 reporting.
  Task       28 on host co2242 reporting.
  Task       29 on host co2242 reporting.
  Task       30 on host co2242 reporting.
  Task       31 on host co2242 reporting.
  Task       32 on host co2242 reporting.
  Task       33 on host co2242 reporting.
  Task       34 on host co2242 reporting.
  Task       35 on host co2242 reporting.
  Task       36 on host co2242 reporting.
  Task       37 on host co2242 reporting.
  Task       38 on host co2242 reporting.
  Task       39 on host co2242 reporting.

  Performing system and environment tests:
  | Environment variable OMP_NUM_THREADS correctly set to 1.
  | Checking for ScaLAPACK...
  | Testing pdtran()...
  | All pdtran() tests passed.

  Obtaining array dimensions for all initial allocations:
  
  -----------------------------------------------------------------------
  Parsing control.in (first pass over file, find array dimensions only).
  The contents of control.in will be repeated verbatim below
  unless switched off by setting 'verbatim_writeout .false.' .
  in the first line of control.in .
  -----------------------------------------------------------------------
  
  ##### Physical settings  ################
  xc                 pbe
  spin               none
  charge      0.0
  relativistic       atomic_zora scalar
  #elsi_restart read
  # SCF settings
  ###################relax_geometry trm 1E-3
  
  #vdw_correction_hirshfeld
  # k-grid settings  (to be adjusted)
  #empty_states 8
  #use_dipole_correction
  #include_spin_orbit non_self_consistent
  
  many_body_dispersion_nl    beta=0.81
  mixer   pulay
  n_max_pulay        12 # high for metal
  charge_mix_param   0.1 #low for metal
  #many_body_dispersion_nl    beta=0.81 do_rpa=.true. rpa_rescale_eigs=.true. parallel_mode=k_points
  ################################################################################
  #
  #  FHI-aims code project
  # Volker Blum, Fritz Haber Institute Berlin, 2009
  #
  #  Suggested "tight" defaults for S atom (to be pasted into control.in file)
  #
  #  Revised Jan 04, 2011, following tests (SiC) done by Lydia Nemec:
  #     d and g functions of tier 2 now enabled by default.
  #
  ################################################################################
    species        S
  #     global species definitions
      nucleus             16
      mass                32.065
  #
      l_hartree           6
  #
      cut_pot             4.0          2.0  1.0
      basis_dep_cutoff    1e-4
  #
      radial_base         44 7.0
      radial_multiplier   2
      angular_grids       specified
        division   0.4665  110
        division   0.5810  194
        division   0.7139  302
        division   0.8274  434
  #      division   0.9105  590
  #      division   1.0975  770
  #      division   1.2028  974
  #      outer_grid  974
        outer_grid  434
  ################################################################################
  #
  #  Definition of "minimal" basis
  #
  ################################################################################
  #     valence basis states
      valence      3  s   2.
      valence      3  p   4.
  #     ion occupancy
      ion_occ      3  s   1.
      ion_occ      3  p   3.
  ################################################################################
  #
  #  Suggested additional basis functions. For production calculations,
  #  uncomment them one after another (the most important basis functions are
  #  listed first).
  #
  #  Constructed for dimers: 1.6 A, 1.9 A, 2.5 A, 3.25 A, 4.0 A
  #
  ################################################################################
  #  "First tier" - improvements: -652.81 meV to -45.53 meV
       ionic 3 d auto
       hydro 2 p 1.8
       hydro 4 f 7
       ionic 3 s auto
  #  "Second tier" - improvements: -30.20 meV to -1.74 meV
       hydro 4 d 6.2
       hydro 5 g 10.8
  #     hydro 4 p 4.9
  #     hydro 5 f 10
  #     hydro 1 s 0.8
  #  "Third tier" - improvements: -1.04 meV to -0.20 meV
  #     hydro 3 d 3.9
  #     hydro 3 d 2.7
  #     hydro 5 g 12
  #     hydro 4 p 10.4
  #     hydro 5 f 12.4
  #     hydro 2 s 1.9
  #  "Fourth tier" - improvements: -0.35 meV to -0.06 meV
  #     hydro 4 d 10.4
  #     hydro 4 p 7.2
  #     hydro 4 d 10
  #     hydro 5 g 19.2
  #     hydro 4 s 12
  
  ################################################################################
  #
  # For methods that use the localized form of the "resolution of identity" for
  # the two-electron Coulomb operator (RI_method LVL), particularly Hartree-Fock and
  # hybrid density functional calculations, the highest accuracy can be obtained by
  # uncommenting the line beginning with "for_aux"  below, thus adding an extra g radial
  # function to the construction of the product basis set for the expansion.
  # See Ref. New J. Phys. 17, 093020 (2015) for more information, particularly Figs. 1 and 6.
  #
  ################################################################################
  #
  # for_aux hydro 5 g 6.0
  ################################################################################
  #
  #  FHI-aims code project
  # Volker Blum, Fritz Haber Institute Berlin, 2009
  #
  #  Suggested "tight" defaults for Mo atom (to be pasted into control.in file)
  #
  ################################################################################
    species        Mo
  #     global species definitions
      nucleus             42
      mass                95.94
  #
      l_hartree           6
  #
      cut_pot             4.0  2.0  1.0
      basis_dep_cutoff    1e-4
  #
      radial_base         59 7.0
      radial_multiplier   2
      angular_grids specified
        division   0.3117   50
        division   0.6750  110
        division   1.0351  194
        division   1.2073  302
        division   1.6402  434
  #      division   1.9185  590
  #      division   2.0237  770
  #      division   2.0980  974
  #      division   2.7972 1202
  #      outer_grid  974
        outer_grid  434
  ################################################################################
  #
  #  Definition of "minimal" basis
  #
  ################################################################################
  #     valence basis states
      valence      5  s   1.
      valence      4  p   6.
      valence      4  d   5.
  #     ion occupancy
      ion_occ     5  s   0.
      ion_occ     4  p   6.
      ion_occ     4  d   4.
  ################################################################################
  #
  #  Suggested additional basis functions. For production calculations,
  #  uncomment them one after another (the most important basis functions are
  #  listed first).
  #
  #  Constructed for dimers: 1.675 A, 1.9 A, 2.375 A, 3.00 A, 4.00 A
  #
  ################################################################################
  #  "First tier"  - max. impr. -711.23  meV, min. impr. -21.07 meV
       hydro 4 f 8.4
       hydro 3 d 2.8
       ionic 5 p auto
       hydro 5 g 12
       ionic 5 s auto
  #  "Second tier" - max. impr. -39.38  meV, min. impr. -2.68 meV
  #     hydro 4 f 12.4
  #     hydro 3 d 3.3
  #     hydro 6 h 17.2
  #     hydro 4 f 7.6
  #     hydro 3 p 3.0
  #     hydro 1 s 0.65
  #  "Third tier"  - max. impr. -5.50 meV, min. impr. -0.47 meV
  #     hydro 4 f 29.2
  #     hydro 5 g 11.2
  #     hydro 3 d 6.8
  #     hydro 6 h 14.8
  #     hydro 2 p 2.3
  #     hydro 4 s 3.8
  #  "Fourth tier"  - max. impr. -0.58 meV, min. impr. -0.19 meV
  #     hydro 5 f 6.8
  #     hydro 5 d 14.8
  #     hydro 6 s 7.8
  #     hydro 5 g 20.8
  #     hydro 5 d 10.4
  #     hydro 5 p 9.8
  #  Further functions - -0.17 meV and below
  #     hydro 5 d 3.2
  ################################################################################
  #
  #  FHI-aims code project
  # Volker Blum, Fritz Haber Institute Berlin, 2009
  #
  #  Suggested "tight" defaults for Se atom (to be pasted into control.in file)
  #
  ################################################################################
    species        Se
  #     global species definitions
      nucleus             34
      mass                78.96
  #
      l_hartree           6
  #
      cut_pot             4.0          2.0  1.0
      basis_dep_cutoff    1e-4
  #
      radial_base         55 7.0
      radial_multiplier   2
      angular_grids       specified
        division   0.0830  110
        division   0.1357  194
        division   0.7377  302
        division   0.8610  434
  #      division   0.9640  590
  #      division   1.0773  770
  #      division   2.5539  974
  #      outer_grid  974
        outer_grid  434
  ################################################################################
  #
  #  Definition of "minimal" basis
  #
  ################################################################################
  #     valence basis states
      valence      4  s   2.
      valence      4  p   4.
      valence      3  d  10.
  #     ion occupancy
      ion_occ      4  s   1.
      ion_occ      4  p   3.
      ion_occ      3  d  10.
  ################################################################################
  #
  #  Suggested additional basis functions. For production calculations,
  #  uncomment them one after another (the most important basis functions are
  #  listed first).
  #
  #  Constructed for dimers: 1.85 A, 2.15 A, 2.50 A, 3.00 A, 4.00 A
  #
  ################################################################################
  #  "First tier" - improvements: -336.21 meV to -36.85 meV
       hydro 3 d 4.3
       hydro 2 p 1.6
       hydro 4 f 7.2
       ionic 4 s auto
  #  "Second tier" - improvements: -14.39 meV to -1.49 meV
  #     hydro 5 g 10.4
  #     hydro 4 p 4.5
  #     hydro 4 d 6.2
  #     hydro 4 f 11.2
  #     hydro 1 s 0.65
  #     hydro 6 h 15.2
  #  "Third tier" - improvements: -0.46 meV and below
  #     hydro 5 g 14.4
  #     ionic 4 d auto
  #     hydro 4 f 22.4
  #     hydro 5 f 7.4
  #     hydro 5 p 8
  #     hydro 5 s 9.4
  #  "Fourth tier" - improvements: -0.12 meV and below
  #     hydro 5 d 11.6
  #     hydro 6 h 18
  #     hydro 4 p 4
  #     hydro 5 f 16
  #     hydro 4 s 3.9
  
  
  compute_forces .true.
  final_forces_cleaned .true.
  
  -----------------------------------------------------------------------
  Completed first pass over input file control.in .
  -----------------------------------------------------------------------
  
  
  -----------------------------------------------------------------------
  Parsing geometry.in (first pass over file, find array dimensions only).
  The contents of geometry.in will be repeated verbatim below
  unless switched off by setting 'verbatim_writeout .false.' .
  in the first line of geometry.in .
  -----------------------------------------------------------------------
  
  #
  # temporary structure-file for finite-difference calculation of forces
  # displacement  -0.0025 of \# atom     3 direction     0
  #
  atom    2.54104289    5.64257156    7.80986956  Se
  atom    2.72067518    7.70434502    6.68093319  Se
  atom    1.10120478    9.16215187    7.58083516  Se
  atom   -0.75761958    9.16215530    6.12766358  Se
  atom   -2.19497214    5.64258074    5.89863097  Se
  atom   -0.93485634    4.18472234    7.25674358  Se
  atom    1.28092112    4.18471758    6.45175767  Se
  atom   -2.37459591    7.70435558    7.02756631  Se
  
  -----------------------------------------------------------------------
  Completed first pass over input file geometry.in .
  -----------------------------------------------------------------------
  

  Basic array size parameters:
  | Number of species                 :        3
  | Number of atoms                   :        8
  | Max. basis fn. angular momentum   :        4
  | Max. atomic/ionic basis occupied n:        5
  | Max. number of basis fn. types    :        3
  | Max. radial fns per species/type  :       10
  | Max. logarithmic grid size        :     1436
  | Max. radial integration grid size :      119
  | Max. angular integration grid size:      434
  | Max. angular grid division number :        8
  | Radial grid for Hartree potential :     1436
  | Number of spin channels           :        1

------------------------------------------------------------
          Reading file control.in.
------------------------------------------------------------
  XC: Using PBE gradient-corrected functionals.
  Spin treatment: No spin polarisation.
  Charge =   0.000000E+00: Neutral system requested explicitly.
  Scalar relativistic treatment of kinetic energy: on-site free-atom approximation to ZORA.
  Using libMBD for calculating MBD and TS energies
  Using pulay charge density mixing.
  Pulay mixing - number of memorized iterations:   12
  Charge density mixing - mixing parameter:     0.1000
 
  Reading configuration options for species S                   .
  | Found nuclear charge :  16.0000
  | Found atomic mass :    32.0650000000000      amu
  | Found l_max for Hartree potential  :   6
  | Found cutoff potl. onset [A], width [A], scale factor :    4.00000    2.00000    1.00000
  | Threshold for basis-dependent cutoff potential is   0.100000E-03
  | Found data for basic radial integration grid :    44 points, outermost radius =    7.000 A
  | Found multiplier for basic radial grid :   2
  | Found angular grid specification: user-specified.
  | Specified grid contains     5 separate shells.
  | Check grid settings after all constraints further below.
  | Found free-atom valence shell :  3 s   2.000
  | Found free-atom valence shell :  3 p   4.000
  | Found free-ion valence shell :  3 s   1.000
  | Found free-ion valence shell :  3 p   3.000
  | Found ionic basis function :  3 d , default cutoff radius.
  | Found hydrogenic basis function :  2 p   1.800
  | Found hydrogenic basis function :  4 f   7.000
  | Found ionic basis function :  3 s , default cutoff radius.
  | Found hydrogenic basis function :  4 d   6.200
  | Found hydrogenic basis function :  5 g  10.800
  Species S                   : Missing cutoff potential type.
  Defaulting to exp(1/x)/(1-x)^2 type cutoff potential.
  Species S : No 'logarithmic' tag. Using default grid for free atom:
  | Default logarithmic grid data [bohr] : 0.1000E-03 0.1000E+03 0.1012E+01
  | Will include ionic basis functions of  2.0-fold positive S                    ion.
  Species S : On-site basis accuracy parameter (for Gram-Schmidt orthonormalisation) not specified.
  Using default value basis_acc =  0.1000000E-03.
  Species S                   : Using default innermost maximum threshold i_radial=  2 for radial functions.
  Species S                   : Default cutoff onset for free atom density etc. : 0.40000000E+01 AA.
  Species S                   : Basic radial grid will be enhanced according to radial_multiplier =   2, to contain    89 grid points.
 
  Reading configuration options for species Mo                  .
  | Found nuclear charge :  42.0000
  | Found atomic mass :    95.9400000000000      amu
  | Found l_max for Hartree potential  :   6
  | Found cutoff potl. onset [A], width [A], scale factor :    4.00000    2.00000    1.00000
  | Threshold for basis-dependent cutoff potential is   0.100000E-03
  | Found data for basic radial integration grid :    59 points, outermost radius =    7.000 A
  | Found multiplier for basic radial grid :   2
  | Found angular grid specification: user-specified.
  | Specified grid contains     6 separate shells.
  | Check grid settings after all constraints further below.
  | Found free-atom valence shell :  5 s   1.000
  | Found free-atom valence shell :  4 p   6.000
  | Found free-atom valence shell :  4 d   5.000
  | Found free-ion valence shell :  5 s   0.000
  | Found free-ion valence shell :  4 p   6.000
  | Found free-ion valence shell :  4 d   4.000
  | Found hydrogenic basis function :  4 f   8.400
  | Found hydrogenic basis function :  3 d   2.800
  | Found ionic basis function :  5 p , default cutoff radius.
  | Found hydrogenic basis function :  5 g  12.000
  | Found ionic basis function :  5 s , default cutoff radius.
  Species Mo                  : Missing cutoff potential type.
  Defaulting to exp(1/x)/(1-x)^2 type cutoff potential.
  Species Mo: No 'logarithmic' tag. Using default grid for free atom:
  | Default logarithmic grid data [bohr] : 0.1000E-03 0.1000E+03 0.1012E+01
  | Will include ionic basis functions of  2.0-fold positive Mo                   ion.
  Species Mo: On-site basis accuracy parameter (for Gram-Schmidt orthonormalisation) not specified.
  Using default value basis_acc =  0.1000000E-03.
  Species Mo                  : Using default innermost maximum threshold i_radial=  2 for radial functions.
  Species Mo                  : Default cutoff onset for free atom density etc. : 0.40000000E+01 AA.
  Species Mo                  : Basic radial grid will be enhanced according to radial_multiplier =   2, to contain   119 grid points.
 
  Reading configuration options for species Se                  .
  | Found nuclear charge :  34.0000
  | Found atomic mass :    78.9600000000000      amu
  | Found l_max for Hartree potential  :   6
  | Found cutoff potl. onset [A], width [A], scale factor :    4.00000    2.00000    1.00000
  | Threshold for basis-dependent cutoff potential is   0.100000E-03
  | Found data for basic radial integration grid :    55 points, outermost radius =    7.000 A
  | Found multiplier for basic radial grid :   2
  | Found angular grid specification: user-specified.
  | Specified grid contains     5 separate shells.
  | Check grid settings after all constraints further below.
  | Found free-atom valence shell :  4 s   2.000
  | Found free-atom valence shell :  4 p   4.000
  | Found free-atom valence shell :  3 d  10.000
  | Found free-ion valence shell :  4 s   1.000
  | Found free-ion valence shell :  4 p   3.000
  | Found free-ion valence shell :  3 d  10.000
  | Found hydrogenic basis function :  3 d   4.300
  | Found hydrogenic basis function :  2 p   1.600
  | Found hydrogenic basis function :  4 f   7.200
  | Found ionic basis function :  4 s , default cutoff radius.
  Species Se                  : Missing cutoff potential type.
  Defaulting to exp(1/x)/(1-x)^2 type cutoff potential.
  Species Se: No 'logarithmic' tag. Using default grid for free atom:
  | Default logarithmic grid data [bohr] : 0.1000E-03 0.1000E+03 0.1012E+01
  | Will include ionic basis functions of  2.0-fold positive Se                   ion.
  Species Se: On-site basis accuracy parameter (for Gram-Schmidt orthonormalisation) not specified.
  Using default value basis_acc =  0.1000000E-03.
  Species Se                  : Using default innermost maximum threshold i_radial=  2 for radial functions.
  Species Se                  : Default cutoff onset for free atom density etc. : 0.40000000E+01 AA.
  Species Se                  : Basic radial grid will be enhanced according to radial_multiplier =   2, to contain   111 grid points.
  Forces will be computed.
  Cleaning forces before final output.
 
  Finished reading input file 'control.in'.
 
------------------------------------------------------------


------------------------------------------------------------
          Reading geometry description geometry.in.
------------------------------------------------------------
  | The smallest distance between any two atoms is         2.35576259 AA.
  | The first atom of this pair is atom number                      4 .
  | The second atom of this pair is atom number                     8 .
  Input structure read successfully.
  The structure contains        8 atoms,  and a total of        272.000 electrons.

  Input geometry:
  | No unit cell requested.
  | Atomic structure:
  |       Atom                x [A]            y [A]            z [A]
  |    1: Species Se            2.54104289        5.64257156        7.80986956
  |    2: Species Se            2.72067518        7.70434502        6.68093319
  |    3: Species Se            1.10120478        9.16215187        7.58083516
  |    4: Species Se           -0.75761958        9.16215530        6.12766358
  |    5: Species Se           -2.19497214        5.64258074        5.89863097
  |    6: Species Se           -0.93485634        4.18472234        7.25674358
  |    7: Species Se            1.28092112        4.18471758        6.45175767
  |    8: Species Se           -2.37459591        7.70435558        7.02756631

 
  Finished reading input file 'control.in'.
 

------------------------------------------------------------
          Reading geometry description geometry.in.
------------------------------------------------------------
 
  Consistency checks for stacksize environment parameter are next.
 
  | Maximum stacksize for task 0: unlimited
  | Maximum stacksize for task 1: unlimited
  | Maximum stacksize for task 2: unlimited
  | Maximum stacksize for task 3: unlimited
  | Maximum stacksize for task 4: unlimited
  | Maximum stacksize for task 5: unlimited
  | Maximum stacksize for task 6: unlimited
  | Maximum stacksize for task 7: unlimited
  | Maximum stacksize for task 8: unlimited
  | Maximum stacksize for task 9: unlimited
  | Maximum stacksize for task 10: unlimited
  | Maximum stacksize for task 11: unlimited
  | Maximum stacksize for task 12: unlimited
  | Maximum stacksize for task 13: unlimited
  | Maximum stacksize for task 14: unlimited
  | Maximum stacksize for task 15: unlimited
  | Maximum stacksize for task 16: unlimited
  | Maximum stacksize for task 17: unlimited
  | Maximum stacksize for task 18: unlimited
  | Maximum stacksize for task 19: unlimited
  | Maximum stacksize for task 20: unlimited
  | Maximum stacksize for task 21: unlimited
  | Maximum stacksize for task 22: unlimited
  | Maximum stacksize for task 23: unlimited
  | Maximum stacksize for task 24: unlimited
  | Maximum stacksize for task 25: unlimited
  | Maximum stacksize for task 26: unlimited
  | Maximum stacksize for task 27: unlimited
  | Maximum stacksize for task 28: unlimited
  | Maximum stacksize for task 29: unlimited
  | Maximum stacksize for task 30: unlimited
  | Maximum stacksize for task 31: unlimited
  | Maximum stacksize for task 32: unlimited
  | Maximum stacksize for task 33: unlimited
  | Maximum stacksize for task 34: unlimited
  | Maximum stacksize for task 35: unlimited
  | Maximum stacksize for task 36: unlimited
  | Maximum stacksize for task 37: unlimited
  | Maximum stacksize for task 38: unlimited
  | Maximum stacksize for task 39: unlimited
  | Current stacksize for task 0: unlimited
  | Current stacksize for task 1: unlimited
  | Current stacksize for task 2: unlimited
  | Current stacksize for task 3: unlimited
  | Current stacksize for task 4: unlimited
  | Current stacksize for task 5: unlimited
  | Current stacksize for task 6: unlimited
  | Current stacksize for task 7: unlimited
  | Current stacksize for task 8: unlimited
  | Current stacksize for task 9: unlimited
  | Current stacksize for task 10: unlimited
  | Current stacksize for task 11: unlimited
  | Current stacksize for task 12: unlimited
  | Current stacksize for task 13: unlimited
  | Current stacksize for task 14: unlimited
  | Current stacksize for task 15: unlimited
  | Current stacksize for task 16: unlimited
  | Current stacksize for task 17: unlimited
  | Current stacksize for task 18: unlimited
  | Current stacksize for task 19: unlimited
  | Current stacksize for task 20: unlimited
  | Current stacksize for task 21: unlimited
  | Current stacksize for task 22: unlimited
  | Current stacksize for task 23: unlimited
  | Current stacksize for task 24: unlimited
  | Current stacksize for task 25: unlimited
  | Current stacksize for task 26: unlimited
  | Current stacksize for task 27: unlimited
  | Current stacksize for task 28: unlimited
  | Current stacksize for task 29: unlimited
  | Current stacksize for task 30: unlimited
  | Current stacksize for task 31: unlimited
  | Current stacksize for task 32: unlimited
  | Current stacksize for task 33: unlimited
  | Current stacksize for task 34: unlimited
  | Current stacksize for task 35: unlimited
  | Current stacksize for task 36: unlimited
  | Current stacksize for task 37: unlimited
  | Current stacksize for task 38: unlimited
  | Current stacksize for task 39: unlimited
 
  Consistency checks for the contents of control.in are next.
 
  MPI_IN_PLACE appears to work with this MPI implementation.
  | Keeping use_mpi_in_place .true. (see manual).
  Target number of points in a grid batch is not set. Defaulting to  100
  Method for grid partitioning is not set. Defaulting to parallel hash+maxmin partitioning.
  Batch size limit is not set. Defaulting to    200
  By default, will store active basis functions for each batch.
  If in need of memory, prune_basis_once .false. can be used to disable this option.
  communication_type for Hartree potential was not specified.
  Defaulting to calc_hartree .
  Pulay mixer: Number of initial linear mixing iterations not set.
  Defaulting to    0 iterations.
  Work space size for distributed Hartree potential not set.
  Defaulting to   0.200000E+03 MB.
  Algorithm-dependent basis array size parameters:
  | n_max_pulay                         :       12
  Maximum number of self-consistency iterations not provided.
  Presetting  1000 iterations.
  Presetting      1001 iterations before the initial mixing cycle
  is restarted anyway using the sc_init_iter criterion / keyword.
  Presetting a factor      1.000 between actual scf density residual
  and density convergence criterion sc_accuracy_rho below which sc_init_iter
  takes no effect.
 * No s.c.f. convergence criteria (sc_accuracy_*) were provided in control.in.
 * The run will proceed with a reasonable default guess, but please check whether.
 * the s.c.f. cycles seem to take too much or too little time.
  Geometry relaxation not requested: no relaxation will be performed.
 * Notice: The s.c.f. convergence criterion sc_accuracy_rho was not provided.
 * We used to stop in this case, and ask the user to provide reasonable
 * scf convergence criteria. However, this led some users to employ criteria
 * that led to extremely long run times, e.g., for simple relaxation.
 * We now preset a default value for sc_accuracy_rho if it is not set.
 * You may still wish to check if this setting is too tight or too loose for your needs.
 * Based on n_atoms, FHI-aims chose sc_accuracy_rho =  0.115470E-05 .
  Force calculation: scf convergence accuracy of forces not set.
  Defaulting to 'sc_accuracy_forces not_checked'.
  Handling of forces: Unphysical translation and rotation will be removed from forces.
  No accuracy limit for integral partition fn. given. Defaulting to  0.1000E-14.
  No threshold value for u(r) in integrations given. Defaulting to  0.1000E-05.
  No occupation type (smearing scheme) given. Defaulting to Gaussian broadening, width =  0.1000E-01 eV.
  The width will be adjusted in iteration number     2 of the first full s.c.f. cycle only.
  S.C.F. convergence parameters will be adjusted in iteration number     2 of the first full s.c.f. cycle only.
  No accuracy for occupation numbers given. Defaulting to  0.1000E-12.
  No threshold value for occupation numbers given. Defaulting to  0.0000E+00.
  No accuracy for fermi level given. Defaulting to  0.1000E-19.
  Maximum # of iterations to find E_F not set. Defaulting to  200.
  Preferred method for the eigenvalue solver ('KS_method') not specified in 'control.in'.
  Calling BLACS routine to test compilation state
  Since ScaLAPACK support is enabled, defaulting to ELPA (via ELSI).
  Will not use alltoall communication since running on < 1024 CPUs.
  Threshold for basis singularities not set.
  Default threshold for basis singularities:  0.1000E-04
  partition_type (choice of integration weights) for integrals was not specified.
  | Using a version of the partition function of Stratmann and coworkers ('stratmann_sparse').
  | At each grid point, the set of atoms used to build the partition table is smoothly restricted to
  | only those atoms whose free-atom density would be non-zero at that grid point.
  Partitioning for Hartree potential was not defined. Using partition_type for integrals.
  | Adjusted default value of keyword multip_moments_threshold to:       0.10000000E-11
  | This value may affect high angular momentum components of the Hartree potential in periodic systems.
  No q(lm)/r^(l+1) cutoff set for long-range Hartree potential.
  | Using default value of  0.100000E-09 .
  | Verify using the multipole_threshold keyword.
  Defaulting to new monopole extrapolation.
  Density update method: automatic selection selected.
  Charge integration errors on the 3D integration grid will be compensated
  by explicit normalization and distribution of residual charges.
  Use the "compensate_multipole_errors" flag to change this behaviour.
  Set 'collect_eigenvectors' to be '.true.' for use_density_matrix .false.
 
  Consistency checks for the contents of geometry.in are next.
 
  Number of empty states per atom not set in control.in - providing a guess from actual geometry.
  | Total number of empty states used during s.c.f. cycle:       44
  If you use a very high smearing, use empty_states (per atom!) in control.in to increase this value.

  Structure-dependent array size parameters: 
  | Maximum number of distinct radial functions  :       38
  | Maximum number of basis functions            :      272
  | Number of Kohn-Sham states (occupied + empty):      180
------------------------------------------------------------

------------------------------------------------------------
          Preparing all fixed parts of the calculation.
------------------------------------------------------------
  Determining machine precision:
    2.225073858507201E-308
  Setting up grids for atomic and cluster calculations.

  Creating wave function, potential, and density for free atoms.

  Species: S

  List of occupied orbitals and eigenvalues:
    n    l              occ      energy [Ha]    energy [eV]
    1    0           2.0000       -88.680731     -2413.1255
    2    0           2.0000        -7.781719      -211.7513
    3    0           2.0000        -0.633662       -17.2428
    2    1           6.0000        -5.751976      -156.5192
    3    1           4.0000        -0.257086        -6.9957


  Species: Mo

  List of occupied orbitals and eigenvalues:
    n    l              occ      energy [Ha]    energy [eV]
    1    0           2.0000      -745.344654    -20281.8600
    2    0           2.0000      -103.288246     -2810.6162
    3    0           2.0000       -17.516687      -476.6533
    4    0           2.0000        -2.358559       -64.1796
    5    0           1.0000        -0.145159        -3.9500
    2    1           6.0000       -92.308627     -2511.8455
    3    1           6.0000       -13.936005      -379.2180
    4    1           6.0000        -1.408138       -38.3174
    3    2          10.0000        -8.119011      -220.9295
    4    2           5.0000        -0.132984        -3.6187


  Species: Se

  List of occupied orbitals and eigenvalues:
    n    l              occ      energy [Ha]    energy [eV]
    1    0           2.0000      -466.337810    -12689.6975
    2    0           2.0000       -59.202598     -1610.9847
    3    0           2.0000        -7.847116      -213.5309
    4    0           2.0000        -0.634372       -17.2621
    2    1           6.0000       -52.061107     -1416.6548
    3    1           6.0000        -5.620941      -152.9536
    4    1           4.0000        -0.238469        -6.4891
    3    2          10.0000        -1.951949       -53.1152


  Adding cutoff potential to free-atom effective potential.
  Creating fixed part of basis set: Ionic, confined, hydrogenic.
 
  S                    ion:

  List of free ionic orbitals and eigenvalues:
    n    l      energy [Ha]    energy [eV]
    1    0       -89.703778     -2440.9640
    2    0        -8.775428      -238.7916
    3    0        -1.470343       -40.0101
    2    1        -6.747660      -183.6132
    3    1        -1.048627       -28.5346


  List of ionic basis orbitals and eigenvalues:
    n    l      energy [Ha]    energy [eV]    outer radius [A]
    3    2        -0.495605       -13.4861       5.386362
    3    0        -1.470336       -40.0099       3.967934

 
  S                    hydrogenic:
 
  List of hydrogenic basis orbitals: 
    n    l      effective z      eigenvalue [eV]  inner max. [A]     outer max. [A]     outer radius [A]   
    2    1         1.800000       -11.0118           1.168531           1.168531           5.452614
    4    3         7.000000       -41.6672           1.212182           1.212182           5.066981
    4    2         6.200000       -32.6848           0.582121           1.814567           5.386362
    5    4        10.800000       -63.4785           1.227092           1.227092           4.766538
 
 
  Mo                   ion:

  List of free ionic orbitals and eigenvalues:
    n    l      energy [Ha]    energy [eV]
    1    0      -746.048685    -20301.0176
    2    0      -103.980912     -2829.4646
    3    0       -18.206601      -495.4268
    4    0        -3.040545       -82.7374
    2    1       -93.001013     -2530.6863
    3    1       -14.625827      -397.9890
    4    1        -2.084855       -56.7318
    3    2        -8.808854      -239.7011
    4    2        -0.765435       -20.8285


  List of ionic basis orbitals and eigenvalues:
    n    l      energy [Ha]    energy [eV]    outer radius [A]
    5    1        -0.465587       -12.6693       5.456393
    5    0        -0.650331       -17.6964       5.390095

 
  Mo                   hydrogenic:
 
  List of hydrogenic basis orbitals: 
    n    l      effective z      eigenvalue [eV]  inner max. [A]     outer max. [A]     outer radius [A]   
    4    3         8.400000       -60.0010           1.009788           1.009788           4.487018
    3    2         2.800000       -11.8048           1.687401           1.687401           5.456393
    5    4        12.000000       -78.3687           1.100005           1.100005           4.432498
 
 
  Se                   ion:

  List of free ionic orbitals and eigenvalues:
    n    l      energy [Ha]    energy [eV]
    1    0      -467.261007    -12714.8189
    2    0       -60.104893     -1635.5374
    3    0        -8.743714      -237.9286
    4    0        -1.414053       -38.4783
    2    1       -52.964156     -1441.2280
    3    1        -6.516916      -177.3343
    4    1        -0.961869       -26.1738
    3    2        -2.844511       -77.4031


  List of ionic basis orbitals and eigenvalues:
    n    l      energy [Ha]    energy [eV]    outer radius [A]
    4    0        -1.414046       -38.4782       4.083166

 
  Se                   hydrogenic:
 
  List of hydrogenic basis orbitals: 
    n    l      effective z      eigenvalue [eV]  inner max. [A]     outer max. [A]     outer radius [A]   
    3    2         4.300000       -27.9518           1.103845           1.103845           5.278265
    2    1         1.600000        -8.6828           1.326010           1.326010           5.475439
    4    3         7.200000       -44.0822           1.173422           1.173422           4.965294
 
  Creating atomic-like basis functions for current effective potential.

  Species S                   :

  List of atomic basis orbitals and eigenvalues:
    n    l      energy [Ha]    energy [eV]    outer radius [A]
    1    0       -88.680731     -2413.1255       0.682391
    2    0        -7.781719      -211.7513       2.289014
    3    0        -0.633662       -17.2428       5.256262
    2    1        -5.751976      -156.5192       2.555240
    3    1        -0.257086        -6.9957       5.386362


  Species Mo                  :

  List of atomic basis orbitals and eigenvalues:
    n    l      energy [Ha]    energy [eV]    outer radius [A]
    1    0      -745.344654    -20281.8600       0.247552
    2    0      -103.288246     -2810.6162       0.682864
    3    0       -17.516687      -476.6533       1.626637
    4    0        -2.358559       -64.1796       4.220963
    5    0        -0.145159        -3.9500       5.456393
    2    1       -92.308627     -2511.8455       0.699766
    3    1       -13.936005      -379.2180       1.793761
    4    1        -1.408138       -38.3174       4.828511
    3    2        -8.119011      -220.9295       2.181285
    4    2        -0.132984        -3.6187       5.390095


  Species Se                  :

  List of atomic basis orbitals and eigenvalues:
    n    l      energy [Ha]    energy [eV]    outer radius [A]
    1    0      -466.337810    -12689.6975       0.309561
    2    0       -59.202598     -1610.9847       0.885812
    3    0        -7.847116      -213.5309       2.355489
    4    0        -0.634372       -17.2621       5.214131
    2    1       -52.061107     -1416.6548       0.907737
    3    1        -5.620941      -152.9536       2.694529
    4    1        -0.238469        -6.4891       5.408909
    3    2        -1.951949       -53.1152       4.083166

  Assembling full basis from fixed parts.
  | Species S :   atomic orbital   1 s accepted.
  | Species S :   atomic orbital   2 s accepted.
  | Species S :    ionic orbital   3 s accepted.
  | Species S :   atomic orbital   3 s accepted.
  | Species S :   atomic orbital   2 p accepted.
  | Species S :   atomic orbital   3 p accepted.
  | Species S :    hydro orbital   2 p accepted.
  | Species S :    ionic orbital   3 d accepted.
  | Species S :    hydro orbital   4 d accepted.
  | Species S :    hydro orbital   4 f accepted.
  | Species S :    hydro orbital   5 g accepted.
  | Species Mo :   atomic orbital   1 s accepted.
  | Species Mo :   atomic orbital   2 s accepted.
  | Species Mo :   atomic orbital   3 s accepted.
  | Species Mo :   atomic orbital   4 s accepted.
  | Species Mo :    ionic orbital   5 s accepted.
  | Species Mo :   atomic orbital   5 s accepted.
  | Species Mo :   atomic orbital   2 p accepted.
  | Species Mo :   atomic orbital   3 p accepted.
  | Species Mo :   atomic orbital   4 p accepted.
  | Species Mo :    ionic orbital   5 p accepted.
  | Species Mo :   atomic orbital   3 d accepted.
  | Species Mo :   atomic orbital   4 d accepted.
  | Species Mo :    hydro orbital   3 d accepted.
  | Species Mo :    hydro orbital   4 f accepted.
  | Species Mo :    hydro orbital   5 g accepted.
  | Species Se :   atomic orbital   1 s accepted.
  | Species Se :   atomic orbital   2 s accepted.
  | Species Se :   atomic orbital   3 s accepted.
  | Species Se :    ionic orbital   4 s accepted.
  | Species Se :   atomic orbital   4 s accepted.
  | Species Se :   atomic orbital   2 p accepted.
  | Species Se :   atomic orbital   3 p accepted.
  | Species Se :   atomic orbital   4 p accepted.
  | Species Se :    hydro orbital   2 p accepted.
  | Species Se :   atomic orbital   3 d accepted.
  | Species Se :    hydro orbital   3 d accepted.
  | Species Se :    hydro orbital   4 f accepted.
 
  Basis size parameters after reduction:
  | Total number of radial functions:       38
  | Total number of basis functions :      272
 
  Per-task memory consumption for arrays in subroutine allocate_ext:
  |          13.978524MB.
  Testing on-site integration grid accuracy.
  |  Species  Function  <phi|h_atom|phi> (log., in eV)  <phi|h_atom|phi> (rad., in eV)
           1        1              -2413.1254568977              -2413.1254096663
           1        2               -211.7513411281               -211.7513404762
           1        3                -16.9725280787                -16.9725279206
           1        4                  7.6024436204                  7.6024549059
           1        5               -156.5192206929               -156.5192205451
           1        6                 -6.9959757887                 -6.9959777655
           1        7                  6.8896462808                  6.8895564741
           1        8                  6.0214250550                  6.0214220200
           1        9                 19.6206468977                 19.6206494558
           1       10                 24.7008710786                 24.7008710738
           1       11                 47.5292252001                 47.5292260486
           2       12             -20281.8599610543             -20281.8584300616
           2       13              -2810.6161812280              -2810.6161551921
           2       14               -476.6533163555               -476.6533136395
           2       15                -64.1796433667                -64.1796426456
           2       16                 -3.3691762756                 -3.3691802887
           2       17                  4.4704608512                  4.4699102345
           2       18              -2511.8455406047              -2511.8455385741
           2       19               -379.2179896350               -379.2179882338
           2       20                -38.3173891619                -38.3173886619
           2       21                  0.2493245095                  0.2492931069
           2       22               -220.9295301098               -220.9295297081
           2       23                 -3.6195697699                 -3.6195754704
           2       24                  7.1428000922                  7.1426882355
           2       25                 23.3975871087                 23.3975871819
           2       26                 50.2449608881                 50.2449608586
           3       27             -12689.6974611609             -12689.6967666984
           3       28              -1610.9846578580              -1610.9846472470
           3       29               -213.5308789869               -213.5308777267
           3       30                -17.0464428502                -17.0464426496
           3       31                  6.7356859379                  6.7356842047
           3       32              -1416.6548010133              -1416.6548002108
           3       33               -152.9535734377               -152.9535727493
           3       34                 -6.4896265677                 -6.4896303794
           3       35                  5.2703037283                  5.2701679583
           3       36                -53.1152220964                -53.1152219035
           3       37                  7.6186674138                  7.6186665630
           3       38                 23.1072799052                 23.1072803137

  Preparing densities etc. for the partition functions (integrals / Hartree potential).
 Frequency grid relative error: 0.12418110983958286E-009                        
   
 Will use parallel mode: atoms     
 BLACS block size: 3                                                 

  Preparations completed.
  max(cpu_time)          :      0.636 s.
  Wall clock time (cpu1) :      0.636 s.
------------------------------------------------------------

------------------------------------------------------------
          Begin self-consistency loop: Initialization.

          Date     :  20210722, Time     :  102448.122
------------------------------------------------------------

  Initializing index lists of integration centers etc. from given atomic structure:
  | Number of centers in hartree potential         :         8
  | Number of centers in hartree multipole         :         8
  | Number of centers in electron density summation:         8
  | Number of centers in basis integrals           :         8
  | Number of centers in integrals                 :         8
  | Number of centers in hamiltonian               :         8
  * Using 40 tasks for Scalapack Eigenvalue solver.
  Detailed listing of tasks and assigned k-points:
  (for non-periodic systems, the "k-point" denotes an internal label only)
   Task     0 k-point     1 on co2242
   Task     1 k-point     1 on co2242
   Task     2 k-point     1 on co2242
   Task     3 k-point     1 on co2242
   Task     4 k-point     1 on co2242
   Task     5 k-point     1 on co2242
   Task     6 k-point     1 on co2242
   Task     7 k-point     1 on co2242
   Task     8 k-point     1 on co2242
   Task     9 k-point     1 on co2242
   Task    10 k-point     1 on co2242
   Task    11 k-point     1 on co2242
   Task    12 k-point     1 on co2242
   Task    13 k-point     1 on co2242
   Task    14 k-point     1 on co2242
   Task    15 k-point     1 on co2242
   Task    16 k-point     1 on co2242
   Task    17 k-point     1 on co2242
   Task    18 k-point     1 on co2242
   Task    19 k-point     1 on co2242
   Task    20 k-point     1 on co2242
   Task    21 k-point     1 on co2242
   Task    22 k-point     1 on co2242
   Task    23 k-point     1 on co2242
   Task    24 k-point     1 on co2242
   Task    25 k-point     1 on co2242
   Task    26 k-point     1 on co2242
   Task    27 k-point     1 on co2242
   Task    28 k-point     1 on co2242
   Task    29 k-point     1 on co2242
   Task    30 k-point     1 on co2242
   Task    31 k-point     1 on co2242
   Task    32 k-point     1 on co2242
   Task    33 k-point     1 on co2242
   Task    34 k-point     1 on co2242
   Task    35 k-point     1 on co2242
   Task    36 k-point     1 on co2242
   Task    37 k-point     1 on co2242
   Task    38 k-point     1 on co2242
   Task    39 k-point     1 on co2242
  Tasks:    40 split into      8 X      5 BLACS grid
  Calculating block size based on n_basis =          272  max_nprow =            8  max_npcol =            5
  ScaLAPACK block size set to:           16
  Allocating        0.023 MB for ovlp
  Allocating        0.023 MB for ham
  Allocating        0.023 MB for eigenvec
  Required Scalapack workspace - INTEGER:            1  REAL:             1
  Partitioning the integration grid into batches with parallel hashing+maxmin method.
  | Number of batches:     3318
  | Maximal batch size:     188
  | Minimal batch size:      19
  | Average batch size:      84.991
  | Standard deviation of batch sizes:      31.066

  Integration load balanced across    40 MPI tasks.
  Work distribution over tasks is as follows:
  Task     0 has       7112 integration points.
  Task     1 has       7104 integration points.
  Task     2 has       6987 integration points.
  Task     3 has       7033 integration points.
  Task     4 has       6995 integration points.
  Task     5 has       7041 integration points.
  Task     6 has       7079 integration points.
  Task     7 has       7098 integration points.
  Task     8 has       7095 integration points.
  Task     9 has       7088 integration points.
  Task    10 has       6980 integration points.
  Task    11 has       7057 integration points.
  Task    12 has       7084 integration points.
  Task    13 has       7081 integration points.
  Task    14 has       7076 integration points.
  Task    15 has       7042 integration points.
  Task    16 has       6973 integration points.
  Task    17 has       7096 integration points.
  Task    18 has       7073 integration points.
  Task    19 has       6999 integration points.
  Task    20 has       7102 integration points.
  Task    21 has       6985 integration points.
  Task    22 has       7094 integration points.
  Task    23 has       6985 integration points.
  Task    24 has       7104 integration points.
  Task    25 has       7003 integration points.
  Task    26 has       7099 integration points.
  Task    27 has       7037 integration points.
  Task    28 has       7099 integration points.
  Task    29 has       6960 integration points.
  Task    30 has       7087 integration points.
  Task    31 has       7000 integration points.
  Task    32 has       6992 integration points.
  Task    33 has       7049 integration points.
  Task    34 has       6993 integration points.
  Task    35 has       7091 integration points.
  Task    36 has       6963 integration points.
  Task    37 has       7106 integration points.
  Task    38 has       7082 integration points.
  Task    39 has       7076 integration points.
  Initializing partition tables, free-atom densities, potentials, etc. across the integration grid (initialize_grid_storage).
  | initialize_grid_storage: Actual outermost partition radius vs. multipole_radius_free
  | (-- VB: in principle, multipole_radius_free should be larger, hence this output)
  | Species        1: Confinement radius =              6.000000000000000 AA, multipole_radius_free =              6.012827091137924 AA.
  | Species        1: outer_partition_radius set to              6.012827091137924 AA .
  | Species        2: Confinement radius =              6.000000000000000 AA, multipole_radius_free =              6.016994434057369 AA.
  | Species        2: outer_partition_radius set to              6.016994434057369 AA .
  | Species        3: Confinement radius =              6.000000000000000 AA, multipole_radius_free =              6.037996416842453 AA.
  | Species        3: outer_partition_radius set to              6.037996416842453 AA .
  | The sparse table of interatomic distances needs          0.71 kbyte instead of         0.51 kbyte of memory.
  | Using the partition_type stratmann_smoother will reduce your memory usage.
  | Net number of integration points:   282000
  | of which are non-zero points    :   268028
  Renormalizing the initial density to the exact electron count on the 3D integration grid.
  | Initial density: Formal number of electrons (from input files) :     272.0000000000
  | Integrated number of electrons on 3D grid     :     271.9999863574
  | Charge integration error                      :      -0.0000136426
  | Normalization factor for density and gradient :       1.0000000502
  Renormalizing the free-atom superposition density to the exact electron count on the 3D integration grid.
  | Formal number of electrons (from input files) :     272.0000000000
  | Integrated number of electrons on 3D grid     :     271.9999863574
  | Charge integration error                      :      -0.0000136426
  | Normalization factor for density and gradient :       1.0000000502
  Obtaining max. number of non-zero basis functions in each batch (get_n_compute_maxes).
  | Maximal number of non-zero basis functions:      229 in task     0
  | Maximal number of non-zero basis functions:      218 in task     1
  | Maximal number of non-zero basis functions:      221 in task     2
  | Maximal number of non-zero basis functions:      220 in task     3
  | Maximal number of non-zero basis functions:      219 in task     4
  | Maximal number of non-zero basis functions:      222 in task     5
  | Maximal number of non-zero basis functions:      225 in task     6
  | Maximal number of non-zero basis functions:      222 in task     7
  | Maximal number of non-zero basis functions:      222 in task     8
  | Maximal number of non-zero basis functions:      229 in task     9
  | Maximal number of non-zero basis functions:      224 in task    10
  | Maximal number of non-zero basis functions:      221 in task    11
  | Maximal number of non-zero basis functions:      228 in task    12
  | Maximal number of non-zero basis functions:      220 in task    13
  | Maximal number of non-zero basis functions:      215 in task    14
  | Maximal number of non-zero basis functions:      222 in task    15
  | Maximal number of non-zero basis functions:      229 in task    16
  | Maximal number of non-zero basis functions:      222 in task    17
  | Maximal number of non-zero basis functions:      223 in task    18
  | Maximal number of non-zero basis functions:      220 in task    19
  | Maximal number of non-zero basis functions:      228 in task    20
  | Maximal number of non-zero basis functions:      219 in task    21
  | Maximal number of non-zero basis functions:      229 in task    22
  | Maximal number of non-zero basis functions:      222 in task    23
  | Maximal number of non-zero basis functions:      220 in task    24
  | Maximal number of non-zero basis functions:      223 in task    25
  | Maximal number of non-zero basis functions:      223 in task    26
  | Maximal number of non-zero basis functions:      223 in task    27
  | Maximal number of non-zero basis functions:      226 in task    28
  | Maximal number of non-zero basis functions:      229 in task    29
  | Maximal number of non-zero basis functions:      222 in task    30
  | Maximal number of non-zero basis functions:      220 in task    31
  | Maximal number of non-zero basis functions:      222 in task    32
  | Maximal number of non-zero basis functions:      225 in task    33
  | Maximal number of non-zero basis functions:      221 in task    34
  | Maximal number of non-zero basis functions:      223 in task    35
  | Maximal number of non-zero basis functions:      220 in task    36
  | Maximal number of non-zero basis functions:      222 in task    37
  | Maximal number of non-zero basis functions:      229 in task    38
  | Maximal number of non-zero basis functions:      222 in task    39
  Selecting the method for density update.
  Electron density will be updated via Kohn Sham orbitals; 
  first geometry step: forces will be updated via orbitals;
  second geometry step: forces will be updated via density matrix;
  finally, the fastest method will be selected
  Scalapack and automatic selection of force update requested:
  Switching to packed matrix format "index" by default.
  Hamiltonian matrix size:
  | Size of matrix non-packed:                 37128
  | Size of matrix packed:           35625
  Allocating        0.374 MB for KS_eigenvector
  Integrating Hamiltonian matrix: batch-based integration.
  Time summed over all CPUs for integration: real work        2.854 s, elapsed        2.937 s
  Integrating overlap matrix.
  Time summed over all CPUs for integration: real work        1.239 s, elapsed        1.291 s
  Decreasing sparse matrix size:
  | Tolerance:  0.1000E-12
  Hamiltonian matrix
  | Array has    34792 nonzero elements out of    35625 elements
  | Sparsity factor is 0.023
  Overlap matrix
  | Array has    34353 nonzero elements out of    35625 elements
  | Sparsity factor is 0.036
  New size of hamiltonian matrix:       34793
  Deallocating overlap matrix.

  Updating Kohn-Sham eigenvalues and eigenvectors using ELSI and the ELPA eigensolver.
  Overlap matrix is not singular
  | Lowest and highest eigenvalues :  0.2144E-01,  0.3926E+01
  Finished singularity check of overlap matrix
  | Time :     0.010 s
  Starting ELPA eigensolver
  Finished Cholesky decomposition
  | Time :     0.003 s
  Finished transformation to standard eigenproblem
  | Time :     0.003 s
  Finished solving standard eigenproblem
  | Time :     0.008 s
  Finished back-transformation of eigenvectors
  | Time :     0.001 s

  Obtaining occupation numbers and chemical potential using ELSI.
  | Chemical potential (Fermi level):    -6.20947249 eV
  Writing Kohn-Sham eigenvalues.

  State    Occupation    Eigenvalue [Ha]    Eigenvalue [eV]
      1       2.00000        -466.345338       -12689.90229
      2       2.00000        -466.345315       -12689.90168
      3       2.00000        -466.345315       -12689.90168
      4       2.00000        -466.345315       -12689.90168
      5       2.00000        -466.345315       -12689.90168
      6       2.00000        -466.345315       -12689.90168
      7       2.00000        -466.345312       -12689.90159
      8       2.00000        -466.345289       -12689.90098
      9       2.00000         -59.210492        -1611.19946
     10       2.00000         -59.210469        -1611.19883
     11       2.00000         -59.210469        -1611.19883
     12       2.00000         -59.210469        -1611.19883
     13       2.00000         -59.210469        -1611.19883
     14       2.00000         -59.210469        -1611.19883
     15       2.00000         -59.210465        -1611.19874
     16       2.00000         -59.210443        -1611.19812
     17       2.00000         -52.069053        -1416.87103
     18       2.00000         -52.069030        -1416.87041
     19       2.00000         -52.069030        -1416.87040
     20       2.00000         -52.069030        -1416.87040
     21       2.00000         -52.069030        -1416.87040
     22       2.00000         -52.069030        -1416.87040
     23       2.00000         -52.069027        -1416.87032
     24       2.00000         -52.069004        -1416.86969
     25       2.00000         -52.068991        -1416.86933
     26       2.00000         -52.068968        -1416.86870
     27       2.00000         -52.068968        -1416.86870
     28       2.00000         -52.068968        -1416.86870
     29       2.00000         -52.068968        -1416.86870
     30       2.00000         -52.068968        -1416.86870
     31       2.00000         -52.068965        -1416.86862
     32       2.00000         -52.068942        -1416.86799
     33       2.00000         -52.068920        -1416.86741
     34       2.00000         -52.068898        -1416.86680
     35       2.00000         -52.068898        -1416.86680
     36       2.00000         -52.068898        -1416.86680
     37       2.00000         -52.068898        -1416.86680
     38       2.00000         -52.068898        -1416.86679
     39       2.00000         -52.068894        -1416.86671
     40       2.00000         -52.068872        -1416.86609
     41       2.00000          -7.856344         -213.78201
     42       2.00000          -7.856324         -213.78145
     43       2.00000          -7.856321         -213.78136
     44       2.00000          -7.856316         -213.78124
     45       2.00000          -7.856313         -213.78115
     46       2.00000          -7.856311         -213.78111
     47       2.00000          -7.856309         -213.78103
     48       2.00000          -7.856285         -213.78038
     49       2.00000          -5.631216         -153.23317
     50       2.00000          -5.631197         -153.23267
     51       2.00000          -5.631183         -153.23229
     52       2.00000          -5.631140         -153.23112
     53       2.00000          -5.631138         -153.23105
     54       2.00000          -5.631092         -153.22980
     55       2.00000          -5.631079         -153.22944
     56       2.00000          -5.631056         -153.22884
     57       2.00000          -5.630360         -153.20990
     58       2.00000          -5.630346         -153.20950
     59       2.00000          -5.630334         -153.20919
     60       2.00000          -5.630311         -153.20856
     61       2.00000          -5.630310         -153.20852
     62       2.00000          -5.630290         -153.20799
     63       2.00000          -5.630281         -153.20774
     64       2.00000          -5.630264         -153.20728
     65       2.00000          -5.629425         -153.18445
     66       2.00000          -5.629401         -153.18381
     67       2.00000          -5.629401         -153.18380
     68       2.00000          -5.629401         -153.18378
     69       2.00000          -5.629400         -153.18377
     70       2.00000          -5.629400         -153.18376
     71       2.00000          -5.629397         -153.18369
     72       2.00000          -5.629373         -153.18303
     73       2.00000          -1.965049          -53.47169
     74       2.00000          -1.964794          -53.46476
     75       2.00000          -1.964774          -53.46421
     76       2.00000          -1.964184          -53.44815
     77       2.00000          -1.964175          -53.44791
     78       2.00000          -1.963603          -53.43237
     79       2.00000          -1.963590          -53.43201
     80       2.00000          -1.963321          -53.42468
     81       2.00000          -1.962709          -53.40803
     82       2.00000          -1.962701          -53.40782
     83       2.00000          -1.962604          -53.40518
     84       2.00000          -1.962524          -53.40300
     85       2.00000          -1.962521          -53.40291
     86       2.00000          -1.961899          -53.38599
     87       2.00000          -1.961896          -53.38592
     88       2.00000          -1.961781          -53.38278
     89       2.00000          -1.961616          -53.37829
     90       2.00000          -1.961502          -53.37519
     91       2.00000          -1.961494          -53.37496
     92       2.00000          -1.961429          -53.37320
     93       2.00000          -1.961421          -53.37299
     94       2.00000          -1.961394          -53.37225
     95       2.00000          -1.961194          -53.36681
     96       2.00000          -1.961194          -53.36680
     97       2.00000          -1.960966          -53.36060
     98       2.00000          -1.960964          -53.36055
     99       2.00000          -1.960872          -53.35804
    100       2.00000          -1.960860          -53.35772
    101       2.00000          -1.960844          -53.35729
    102       2.00000          -1.960812          -53.35642
    103       2.00000          -1.960801          -53.35612
    104       2.00000          -1.960789          -53.35578
    105       2.00000          -1.960710          -53.35362
    106       2.00000          -1.960585          -53.35023
    107       2.00000          -1.960585          -53.35022
    108       2.00000          -1.960430          -53.34601
    109       2.00000          -1.960424          -53.34584
    110       2.00000          -1.960413          -53.34554
    111       2.00000          -1.960407          -53.34540
    112       2.00000          -1.960394          -53.34502
    113       2.00000          -0.762254          -20.74198
    114       2.00000          -0.740534          -20.15096
    115       2.00000          -0.740373          -20.14656
    116       2.00000          -0.682405          -18.56918
    117       2.00000          -0.682211          -18.56392
    118       2.00000          -0.607831          -16.53993
    119       2.00000          -0.607730          -16.53717
    120       2.00000          -0.566926          -15.42685
    121       2.00000          -0.385667          -10.49455
    122       2.00000          -0.378061          -10.28757
    123       2.00000          -0.378037          -10.28690
    124       2.00000          -0.345136           -9.39162
    125       2.00000          -0.337211           -9.17599
    126       2.00000          -0.337193           -9.17549
    127       2.00000          -0.322766           -8.78291
    128       2.00000          -0.322693           -8.78093
    129       2.00000          -0.291572           -7.93409
    130       2.00000          -0.257154           -6.99751
    131       2.00000          -0.257131           -6.99689
    132       2.00000          -0.245124           -6.67016
    133       2.00000          -0.245044           -6.66800
    134       2.00000          -0.239142           -6.50737
    135       2.00000          -0.239130           -6.50705
    136       2.00000          -0.238890           -6.50053
    137       0.00000          -0.139434           -3.79419
    138       0.00000          -0.139325           -3.79123
    139       0.00000          -0.129888           -3.53443
    140       0.00000          -0.100029           -2.72192
    141       0.00000          -0.099896           -2.71832
    142       0.00000          -0.093120           -2.53392
    143       0.00000          -0.093036           -2.53165
    144       0.00000          -0.091163           -2.48067
    145       0.00000           0.092194            2.50873
    146       0.00000           0.093625            2.54767
    147       0.00000           0.093747            2.55097
    148       0.00000           0.109066            2.96783
    149       0.00000           0.109103            2.96885
    150       0.00000           0.115889            3.15351
    151       0.00000           0.115913            3.15416
    152       0.00000           0.120765            3.28619
    153       0.00000           0.125019            3.40195
    154       0.00000           0.133638            3.63649
    155       0.00000           0.149680            4.07301
    156       0.00000           0.149711            4.07385
    157       0.00000           0.154426            4.20216
    158       0.00000           0.154453            4.20288
    159       0.00000           0.161277            4.38858
    160       0.00000           0.161299            4.38917
    161       0.00000           0.163456            4.44786
    162       0.00000           0.163465            4.44812
    163       0.00000           0.168207            4.57713
    164       0.00000           0.178571            4.85916
    165       0.00000           0.178647            4.86122
    166       0.00000           0.188824            5.13816
    167       0.00000           0.199915            5.43995
    168       0.00000           0.199954            5.44102
    169       0.00000           0.214759            5.84390
    170       0.00000           0.214771            5.84422
    171       0.00000           0.234673            6.38578
    172       0.00000           0.234695            6.38637
    173       0.00000           0.236134            6.42553
    174       0.00000           0.242548            6.60006
    175       0.00000           0.266849            7.26134
    176       0.00000           0.268863            7.31615
    177       0.00000           0.268924            7.31781
    178       0.00000           0.308019            8.38162
    179       0.00000           0.308031            8.38195
    180       0.00000           0.341492            9.29247

  Highest occupied state (VBM) at     -6.50052755 eV
  | Occupation number:      2.00000000

  Lowest unoccupied state (CBM) at    -3.79418940 eV
  | Occupation number:      0.00000000

  Overall HOMO-LUMO gap:      2.70633814 eV.
  Calculating total energy contributions from superposition of free atom densities.

  Total energy components:
  | Sum of eigenvalues            :      -11481.52632433 Ha     -312428.22745817 eV
  | XC energy correction          :        -705.40750026 Ha      -19195.11471875 eV
  | XC potential correction       :         917.88515005 Ha       24976.92574474 eV
  | Free-atom electrostatic energy:       -8295.39890282 Ha     -225729.28912556 eV
  | Hartree energy correction     :           0.00000000 Ha           0.00000000 eV
  | vdW energy correction         :           0.00000000 Ha           0.00000000 eV
  | Entropy correction            :           0.00000000 Ha           0.00000000 eV
  | ---------------------------
  | Total energy                  :      -19564.44757736 Ha     -532375.70555775 eV
  | Total energy, T -> 0          :      -19564.44757736 Ha     -532375.70555775 eV  <-- do not rely on this value for anything but (periodic) metals
  | Electronic free energy        :      -19564.44757736 Ha     -532375.70555775 eV

  Derived energy quantities:
  | Kinetic energy                :       19965.37590278 Ha      543285.52037766 eV
  | Electrostatic energy          :      -38824.41597989 Ha    -1056466.11121666 eV
  | Energy correction for multipole
  | error in Hartree potential    :           0.00000000 Ha           0.00000000 eV
  | Sum of eigenvalues per atom                           :      -39053.52843227 eV
  | Total energy (T->0) per atom                          :      -66546.96319472 eV  <-- do not rely on this value for anything but (periodic) metals
  | Electronic free energy per atom                       :      -66546.96319472 eV
  Initialize hartree_potential_storage
  Max. number of atoms included in rho_multipole:            8

  End scf initialization - timings             :  max(cpu_time)    wall_clock(cpu1)
  | Time for scf. initialization               :        0.307 s           0.311 s
  | Boundary condition initialization          :        0.000 s           0.000 s
  | Integration                                :        0.108 s           0.109 s
  | Solution of K.-S. eqns.                    :        0.029 s           0.031 s
  | Grid partitioning                          :        0.129 s           0.129 s
  | Preloading free-atom quantities on grid    :        0.029 s           0.029 s
  | Free-atom superposition energy             :        0.008 s           0.008 s
  | Total energy evaluation                    :        0.000 s           0.000 s

  Partial memory accounting:
  | Current value for overall tracked memory usage:
  |   Minimum:        0.808 MB (on task  7)
  |   Maximum:        0.843 MB (on task  0)
  |   Average:        0.815 MB
  | Peak value for overall tracked memory usage:
  |   Minimum:        2.372 MB (on task 14 after allocating wave)
  |   Maximum:        2.515 MB (on task  0 after allocating wave)
  |   Average:        2.441 MB
  | Largest tracked array allocation so far:
  |   Minimum:        0.374 MB (KS_eigenvector on task  1)
  |   Maximum:        1.371 MB (all_coords on task 21)
  |   Average:        0.480 MB
  Note:  These values currently only include a subset of arrays which are explicitly tracked.
  The "true" memory usage will be greater.
------------------------------------------------------------
  Evaluating new KS density.
  Integration grid: deviation in total charge (<rho> - N_e) =   1.705303E-13

  Time for density update prior                :  max(cpu_time)    wall_clock(cpu1)
  | self-consistency iterative process         :        0.079 s           0.079 s

------------------------------------------------------------
          Begin self-consistency iteration #    1

  Date     :  20210722, Time     :  102448.512
------------------------------------------------------------
  Pulay mixing of updated and previous charge densities.
  Renormalizing the density to the exact electron count on the 3D integration grid.
  | Formal number of electrons (from input files) :     272.0000000000
  | Integrated number of electrons on 3D grid     :     272.0000000000
  | Charge integration error                      :       0.0000000000
  | Normalization factor for density and gradient :       1.0000000000

  Evaluating partitioned Hartree potential by multipole expansion.
  | Original multipole sum: apparent total charge =  -0.265657E-13
  | Sum of charges compensated after spline to logarithmic grids =   0.232368E-06
  | Analytical far-field extrapolation by fixed multipoles:
  | Hartree multipole sum: apparent total charge =  -0.265636E-13
  Summing up the Hartree potential.
  Time summed over all CPUs for potential: real work        1.092 s, elapsed        1.116 s
  | RMS charge density error from multipole expansion :   0.501621E-03

  Integrating Hamiltonian matrix: batch-based integration.
  Time summed over all CPUs for integration: real work        2.790 s, elapsed        2.878 s

  Updating Kohn-Sham eigenvalues and eigenvectors using ELSI and the ELPA eigensolver.
  Starting ELPA eigensolver
  Finished transformation to standard eigenproblem
  | Time :     0.001 s
  Finished solving standard eigenproblem
  | Time :     0.007 s
  Finished back-transformation of eigenvectors
  | Time :     0.001 s

  Obtaining occupation numbers and chemical potential using ELSI.
  | Chemical potential (Fermi level):    -6.15931902 eV
  Writing Kohn-Sham eigenvalues.

  State    Occupation    Eigenvalue [Ha]    Eigenvalue [eV]
      1       2.00000        -466.343102       -12689.84146
      2       2.00000        -466.343077       -12689.84077
      3       2.00000        -466.343066       -12689.84048
      4       2.00000        -466.343063       -12689.84040
      5       2.00000        -466.343062       -12689.84036
      6       2.00000        -466.343061       -12689.84035
      7       2.00000        -466.343051       -12689.84008
      8       2.00000        -466.343013       -12689.83903
      9       2.00000         -59.208337        -1611.14082
     10       2.00000         -59.208310        -1611.14010
     11       2.00000         -59.208301        -1611.13984
     12       2.00000         -59.208298        -1611.13975
     13       2.00000         -59.208296        -1611.13971
     14       2.00000         -59.208296        -1611.13971
     15       2.00000         -59.208287        -1611.13946
     16       2.00000         -59.208248        -1611.13839
     17       2.00000         -52.067050        -1416.81651
     18       2.00000         -52.067023        -1416.81579
     19       2.00000         -52.067014        -1416.81553
     20       2.00000         -52.067011        -1416.81545
     21       2.00000         -52.067009        -1416.81541
     22       2.00000         -52.067009        -1416.81540
     23       2.00000         -52.067000        -1416.81515
     24       2.00000         -52.066961        -1416.81409
     25       2.00000         -52.066901        -1416.81248
     26       2.00000         -52.066875        -1416.81176
     27       2.00000         -52.066866        -1416.81150
     28       2.00000         -52.066863        -1416.81142
     29       2.00000         -52.066861        -1416.81138
     30       2.00000         -52.066861        -1416.81137
     31       2.00000         -52.066852        -1416.81112
     32       2.00000         -52.066813        -1416.81006
     33       2.00000         -52.066514        -1416.80194
     34       2.00000         -52.066488        -1416.80122
     35       2.00000         -52.066478        -1416.80095
     36       2.00000         -52.066475        -1416.80087
     37       2.00000         -52.066474        -1416.80083
     38       2.00000         -52.066473        -1416.80083
     39       2.00000         -52.066464        -1416.80058
     40       2.00000         -52.066425        -1416.79951
     41       2.00000          -7.854245         -213.72489
     42       2.00000          -7.854216         -213.72408
     43       2.00000          -7.854210         -213.72393
     44       2.00000          -7.854203         -213.72375
     45       2.00000          -7.854200         -213.72366
     46       2.00000          -7.854196         -213.72356
     47       2.00000          -7.854191         -213.72342
     48       2.00000          -7.854149         -213.72228
     49       2.00000          -5.629586         -153.18883
     50       2.00000          -5.629566         -153.18828
     51       2.00000          -5.629548         -153.18780
     52       2.00000          -5.629505         -153.18662
     53       2.00000          -5.629501         -153.18651
     54       2.00000          -5.629458         -153.18534
     55       2.00000          -5.629440         -153.18485
     56       2.00000          -5.629412         -153.18411
     57       2.00000          -5.628497         -153.15919
     58       2.00000          -5.628477         -153.15866
     59       2.00000          -5.628465         -153.15832
     60       2.00000          -5.628440         -153.15765
     61       2.00000          -5.628438         -153.15759
     62       2.00000          -5.628417         -153.15703
     63       2.00000          -5.628407         -153.15675
[...]
    134       2.00000          -0.221411           -6.02491
    135       2.00000          -0.220774           -6.00756
    136       2.00000          -0.220753           -6.00699
    137       0.00000          -0.127602           -3.47223
    138       0.00000          -0.127498           -3.46940
    139       0.00000          -0.116833           -3.17919
    140       0.00000          -0.086591           -2.35627
    141       0.00000          -0.086460           -2.35270
    142       0.00000          -0.080347           -2.18636
    143       0.00000          -0.080268           -2.18419
    144       0.00000          -0.079343           -2.15904
    145       0.00000           0.105755            2.87773
    146       0.00000           0.105874            2.88097
    147       0.00000           0.110651            3.01096
    148       0.00000           0.119224            3.24426
    149       0.00000           0.119267            3.24543
    150       0.00000           0.126666            3.44676
    151       0.00000           0.126692            3.44748
    152       0.00000           0.131224            3.57079
    153       0.00000           0.134723            3.66600
    154       0.00000           0.147806            4.02200
    155       0.00000           0.160702            4.37292
    156       0.00000           0.160710            4.37314
    157       0.00000           0.165585            4.50579
    158       0.00000           0.165597            4.50613
    159       0.00000           0.171188            4.65826
    160       0.00000           0.171219            4.65909
    161       0.00000           0.176612            4.80585
    162       0.00000           0.176637            4.80653
    163       0.00000           0.185059            5.03572
    164       0.00000           0.191375            5.20757
    165       0.00000           0.191460            5.20990
    166       0.00000           0.199578            5.43081
    167       0.00000           0.214831            5.84584
    168       0.00000           0.214867            5.84683
    169       0.00000           0.225471            6.13538
    170       0.00000           0.225491            6.13594
    171       0.00000           0.246577            6.70971
    172       0.00000           0.246603            6.71042
    173       0.00000           0.248092            6.75092
    174       0.00000           0.254391            6.92234
    175       0.00000           0.280028            7.61994
    176       0.00000           0.281912            7.67121
    177       0.00000           0.281976            7.67297
    178       0.00000           0.321491            8.74821
    179       0.00000           0.321503            8.74854
    180       0.00000           0.355658            9.67796

  Highest occupied state (VBM) at     -6.00699155 eV
  | Occupation number:      2.00000000

  Lowest unoccupied state (CBM) at    -3.47222775 eV
  | Occupation number:      0.00000000

  Overall HOMO-LUMO gap:      2.53476381 eV.

  Self-consistency cycle converged.


------------------------------------------------------------
  End self-consistency iteration #    15       :  max(cpu_time)    wall_clock(cpu1)
  | Time for this iteration                    :        0.611 s           0.612 s
  | Charge density & force component update    :        0.426 s           0.426 s
  | Density mixing                             :        0.004 s           0.005 s
  | Hartree multipole update                   :        0.003 s           0.002 s
  | Hartree multipole summation                :        0.094 s           0.094 s
  | Integration                                :        0.072 s           0.072 s
  | Solution of K.-S. eqns.                    :        0.010 s           0.011 s
  | Total energy evaluation                    :        0.000 s           0.000 s

  Partial memory accounting:
  | Current value for overall tracked memory usage:
  |   Minimum:        0.813 MB (on task  7)
  |   Maximum:        0.848 MB (on task  0)
  |   Average:        0.820 MB
  | Peak value for overall tracked memory usage:
  |   Minimum:        4.287 MB (on task 14 after allocating hessian_basis_wave)
  |   Maximum:        4.523 MB (on task  0 after allocating hessian_basis_wave)
  |   Average:        4.408 MB
  | Largest tracked array allocation so far:
  |   Minimum:        1.850 MB (hessian_basis_wave on task 14)
  |   Maximum:        1.971 MB (hessian_basis_wave on task  0)
  |   Average:        1.919 MB
  Note:  These values currently only include a subset of arrays which are explicitly tracked.
  The "true" memory usage will be greater.
------------------------------------------------------------
  Obtaining max. number of non-zero basis functions in each batch .
  Evaluating KS electron density on previously omitted grid points.

  Entering Libmbd.
  Libmbd: VdW method: mbd-nl
  Libmbd: Evaluating kinetic energy density...

  Evaluating density matrix
  Finished density matrix calculation
  | Time :     0.002 s

  Libmbd: Performing Hirshfeld analysis...
  Libmbd: Calculating MBD energy...
  Libmbd: Evaluated energy: -0.11903577427677448E-001

  Leaving Libmbd.


  Total energy components:
  | Sum of eigenvalues            :      -11477.89923175 Ha     -312329.52924742 eV
  | XC energy correction          :        -705.50158031 Ha      -19197.67476706 eV
  | XC potential correction       :         918.00369784 Ha       24980.15159438 eV
  | Free-atom electrostatic energy:       -8295.39890282 Ha     -225729.28912556 eV
  | Hartree energy correction     :          -3.63788596 Ha         -98.99191360 eV
  | vdW energy correction         :          -0.01190358 Ha          -0.32391282 eV
  | Entropy correction            :          -0.00000000 Ha          -0.00000000 eV
  | ---------------------------
  | Total energy                  :      -19564.44580657 Ha     -532375.65737208 eV
  | Total energy, T -> 0          :      -19564.44580657 Ha     -532375.65737208 eV  <-- do not rely on this value for anything but (periodic) metals
  | Electronic free energy        :      -19564.44580657 Ha     -532375.65737208 eV

  Derived energy quantities:
  | Kinetic energy                :       19965.33133260 Ha      543284.30756116 eV
  | Electrostatic energy          :      -38824.26365529 Ha    -1056461.96625337 eV
  | Energy correction for multipole
  | error in Hartree potential    :          -0.00422963 Ha          -0.11509415 eV
  | Sum of eigenvalues per atom                           :      -39041.19115593 eV
  | Total energy (T->0) per atom                          :      -66546.95717151 eV  <-- do not rely on this value for anything but (periodic) metals
  | Electronic free energy per atom                       :      -66546.95717151 eV

  atomic forces [eV/Ang]:
  -----------------------
  atom #    1
   Hellmann-Feynman              :  0.273743E+02 -0.145093E+02  0.509855E+02
   Ionic forces                  :  0.000000E+00  0.000000E+00  0.000000E+00
   Multipole                     :  0.229980E-01 -0.506722E-02 -0.703114E-01
   Pulay + GGA                   : -0.273767E+02  0.145055E+02 -0.509137E+02
   Van der Waals                 : -0.207635E-01  0.854386E-02 -0.964643E-03
   ----------------------------------------------------------------
   Total forces(   1)            : -0.116779E-03 -0.282157E-03  0.530716E-03
  atom #    2
   Hellmann-Feynman              :  0.418837E+02  0.145178E+02 -0.399725E+02
   Ionic forces                  :  0.000000E+00  0.000000E+00  0.000000E+00
   Multipole                     :  0.659320E-04  0.513842E-02  0.740596E-01
   Pulay + GGA                   : -0.418673E+02 -0.145115E+02  0.399044E+02
   Van der Waals                 : -0.200735E-01 -0.854995E-02 -0.553101E-02
   ----------------------------------------------------------------
   Total forces(   2)            : -0.360146E-02  0.283501E-02  0.409324E-03
  atom #    3
   Hellmann-Feynman              :  0.702788E+01  0.350420E+02  0.476961E+02
   Ionic forces                  :  0.000000E+00  0.000000E+00  0.000000E+00
   Multipole                     :  0.166152E-01  0.115794E-01 -0.710920E-01
   Pulay + GGA                   : -0.704421E+01 -0.350344E+02 -0.476351E+02
   Van der Waals                 : -0.880915E-02 -0.206633E-01  0.935315E-03
   ----------------------------------------------------------------
   Total forces(   3)            : -0.852309E-02 -0.150282E-02 -0.916819E-02
  atom #    4
   Hellmann-Feynman              : -0.701457E+01  0.351107E+02 -0.477107E+02
   Ionic forces                  :  0.000000E+00  0.000000E+00  0.000000E+00
   Multipole                     : -0.166412E-01  0.114643E-01  0.713222E-01
   Pulay + GGA                   :  0.704328E+01 -0.350954E+02  0.476441E+02
   Van der Waals                 :  0.883308E-02 -0.206573E-01 -0.934061E-03
   ----------------------------------------------------------------
   Total forces(   4)            :  0.208948E-01  0.609805E-02  0.377607E-02
  atom #    5
   Hellmann-Feynman              : -0.273829E+02 -0.145065E+02 -0.509719E+02
   Ionic forces                  :  0.000000E+00  0.000000E+00  0.000000E+00
   Multipole                     : -0.229399E-01 -0.501436E-02  0.703803E-01
   Pulay + GGA                   :  0.273853E+02  0.144996E+02  0.508985E+02
   Van der Waals                 :  0.207617E-01  0.854656E-02  0.968504E-03
   ----------------------------------------------------------------
   Total forces(   5)            :  0.270664E-03 -0.329981E-02 -0.204729E-02
  atom #    6
   Hellmann-Feynman              : -0.215762E+02 -0.350632E+02  0.431961E+02
   Ionic forces                  :  0.000000E+00  0.000000E+00  0.000000E+00
   Multipole                     :  0.665760E-02 -0.117951E-01 -0.730217E-01
   Pulay + GGA                   :  0.215617E+02  0.350548E+02 -0.431269E+02
   Van der Waals                 :  0.808493E-02  0.206752E-01  0.362181E-02
   ----------------------------------------------------------------
   Total forces(   6)            :  0.179092E-03  0.560538E-03 -0.151383E-03
  atom #    7
   Hellmann-Feynman              :  0.215750E+02 -0.350583E+02 -0.432009E+02
   Ionic forces                  :  0.000000E+00  0.000000E+00  0.000000E+00
   Multipole                     : -0.666412E-02 -0.118257E-01  0.730273E-01
   Pulay + GGA                   : -0.215603E+02  0.350492E+02  0.431313E+02
   Van der Waals                 : -0.808889E-02  0.206649E-01 -0.362225E-02
   ----------------------------------------------------------------
   Total forces(   7)            : -0.106446E-04 -0.272226E-03 -0.191371E-03
  atom #    8
   Hellmann-Feynman              : -0.419325E+02  0.144540E+02  0.400456E+02
   Ionic forces                  :  0.000000E+00  0.000000E+00  0.000000E+00
   Multipole                     : -0.308221E-03  0.522516E-02 -0.741977E-01
   Pulay + GGA                   :  0.419036E+02 -0.144549E+02 -0.399700E+02
   Van der Waals                 :  0.200554E-01 -0.855993E-02  0.552634E-02
   ----------------------------------------------------------------
   Total forces(   8)            : -0.909179E-02 -0.421908E-02  0.684487E-02

  Timings for VdW correction (Tkatchenko-Scheffler 2009 or later):
  | CPU time:        0.133 s, Wall clock time:        0.133 s.
  Removing unitary transformations (pure translations, rotations) from forces on atoms.
  Atomic forces before filtering:
  | Net force on center of mass :   0.763932E-06 -0.825048E-04  0.274621E-05 eV/A
  | Net torque on center of mass:   0.177998E-05 -0.261252E-03 -0.176063E-05 eV
  Atomic forces after filtering:
  | Net force on center of mass :   0.000000E+00  0.696899E-18  0.000000E+00 eV/A
  | Net torque on center of mass:   0.184392E-17  0.000000E+00  0.295026E-17 eV

  Energy and forces in a compact form:
  | Total energy uncorrected      :         -0.532375657372079E+06 eV
  | Total energy corrected        :         -0.532375657372079E+06 eV  <-- do not rely on this value for anything but (periodic) metals
  | Electronic free energy        :         -0.532375657372079E+06 eV
  Total atomic forces (unitary forces cleaned) [eV/Ang]:
  |    1         -0.108957476896497E-03         -0.271728982418273E-03          0.510875367674753E-03
  |    2         -0.360301723091262E-02          0.284537734229529E-02          0.387890256555330E-03
  |    3         -0.851725591970805E-02         -0.149244068434792E-02         -0.917632780383316E-02
  |    4          0.208886157462964E-01          0.610829628765293E-02          0.378327166198626E-02
  |    5          0.262706443406002E-03         -0.328961406174613E-02         -0.202802696590744E-02
  |    6          0.182386238974668E-03          0.570842921751099E-03         -0.142449978992566E-03
  |    7         -0.139961800825539E-04         -0.261904833459264E-03         -0.200730668802609E-03
  |    8         -0.909048162107736E-02         -0.420882798972772E-02          0.686549813131943E-02

  ------------------------------------ 
  Start decomposition of the XC Energy 
  ------------------------------------ 
  X and C from original XC functional choice 
  Hartree-Fock Energy :          0.000000000 Ha              0.000000000 eV
  X Energy            :       -692.219176347 Ha         -18836.242165855 eV
  C Energy            :        -13.282403959 Ha           -361.432601200 eV
  Total XC Energy     :       -705.501580306 Ha         -19197.674767055 eV
  ------------------------------------ 
  LDA X and C from self-consistent density 
  X Energy LDA        :       -655.332832937 Ha         -17832.513692514 eV
  C Energy LDA        :        -24.583050680 Ha           -668.938844236 eV
  ------------------------------------ 
  End decomposition of the XC Energy 
  ------------------------------------ 

------------------------------------------------------------

------------------------------------------------------------------------------
  Final output of selected total energy values:

  The following output summarizes some interesting total energy values
  at the end of a run (AFTER all relaxation, molecular dynamics, etc.).

  | Total energy of the DFT / Hartree-Fock s.c.f. calculation      :        -532375.657372079 eV
  | Final zero-broadening corrected energy (caution - metals only) :        -532375.657372079 eV
  | For reference only, the value of 1 Hartree used in FHI-aims is :             27.211384500 eV

  Before relying on these values, please be sure to understand exactly which
  total energy value is referred to by a given number. Different objects may
  all carry the same name 'total energy'. Definitions:

  Total energy of the DFT / Hartree-Fock s.c.f. calculation:
  | Note that this energy does not include ANY quantities calculated after the
  | s.c.f. cycle, in particular not ANY RPA, MP2, etc. many-body perturbation terms.

  Final zero-broadening corrected energy:
  | For metallic systems only, a broadening of the occupation numbers at the Fermi
  | level can be extrapolated back to zero broadening by an electron-gas inspired
  | formula. For all systems that are not real metals, this value can be
  | meaningless and should be avoided.

------------------------------------------------------------------------------
  Methods described in the following list of references were used in this FHI-aims run.
  If you publish the results, please make sure to cite these reference if they apply.
  FHI-aims is an academic code, and for our developers (often, Ph.D. students
  and postdocs), scientific credit in the community is essential.
  Thank you for helping us!

  For any use of FHI-aims, please cite:

    Volker Blum, Ralf Gehrke, Felix Hanke, Paula Havu, Ville Havu,
    Xinguo Ren, Karsten Reuter, and Matthias Scheffler
    'Ab initio molecular simulations with numeric atom-centered orbitals'
    Computer Physics Communications 180, 2175-2196 (2009)
    http://dx.doi.org/10.1016/j.cpc.2009.06.022


  The ELSI infrastructure was used in your run to solve the Kohn-Sham electronic structure.
  Please check out http://elsi-interchange.org to learn more.
  If scalability is important for your project, please acknowledge ELSI by citing:

    V. W-z. Yu, F. Corsetti, A. Garcia, W. P. Huhn, M. Jacquelin, W. Jia,
    B. Lange, L. Lin, J. Lu, W. Mi, A. Seifitokaldani, A. Vazquez-Mayagoitia,
    C. Yang, H. Yang, and V. Blum
    'ELSI: A unified software interface for Kohn-Sham electronic structure solvers'
    Computer Physics Communications 222, 267-285 (2018).
    http://dx.doi.org/10.1016/j.cpc.2017.09.007


  For the real-space grid partitioning and parallelization used in this calculation, please cite:

    Ville Havu, Volker Blum, Paula Havu, and Matthias Scheffler,
    'Efficient O(N) integration for all-electron electronic structure calculation'
    'using numerically tabulated basis functions'
    Journal of Computational Physics 228, 8367-8379 (2009).
    http://dx.doi.org/10.1016/j.jcp.2009.08.008

  Of course, there are many other important community references, e.g., those cited in the
  above references. Our list is limited to references that describe implementations in the
  FHI-aims code. The reason is purely practical (length of this list) - please credit others as well.

------------------------------------------------------------
          Leaving FHI-aims.
          Date     :  20210722, Time     :  102452.002

          Computational steps:
          | Number of self-consistency cycles          :           15
          | Number of SCF (re)initializations          :            1

          Detailed time accounting                     :  max(cpu_time)    wall_clock(cpu1)
          | Total time                                 :        4.571 s           4.581 s
          | Preparation time                           :        0.636 s           0.636 s
          | Boundary condition initalization           :        0.000 s           0.000 s
          | Grid partitioning                          :        0.129 s           0.129 s
          | Preloading free-atom quantities on grid    :        0.029 s           0.029 s
          | Free-atom superposition energy             :        0.008 s           0.008 s
          | Total time for integrations                :        1.195 s           1.194 s
          | Total time for solution of K.-S. equations :        0.182 s           0.184 s
          | Total time for density & force components  :        1.565 s           1.566 s
          | Total time for mixing                      :        0.045 s           0.045 s
          | Total time for Hartree multipole update    :        0.039 s           0.036 s
          | Total time for Hartree multipole sum       :        0.492 s           0.495 s
          | Total time for total energy evaluation     :        0.004 s           0.002 s
          | Total time for scaled ZORA corrections     :        0.000 s           0.000 s
          | Total time for vdW correction              :        0.133 s           0.133 s

          Partial memory accounting:
          | Residual value for overall tracked memory usage across tasks:     0.000000 MB (should be 0.000000 MB)
          | Peak values for overall tracked memory usage:
          |   Minimum:        4.287 MB (on task 14 after allocating hessian_basis_wave)
          |   Maximum:        4.523 MB (on task  0 after allocating hessian_basis_wave)
          |   Average:        4.408 MB
          | Largest tracked array allocation:
          |   Minimum:        1.850 MB (hessian_basis_wave on task 14)
          |   Maximum:        1.971 MB (hessian_basis_wave on task  0)
          |   Average:        1.919 MB
          Note:  These values currently only include a subset of arrays which are explicitly tracked.
          The "true" memory usage will be greater.

          Have a nice day.
------------------------------------------------------------
