------------------------------------------------------------
          Invoking FHI-aims ...

          When using FHI-aims, please cite the following reference:

            Volker Blum, Ralf Gehrke, Felix Hanke, Paula Havu,
            Ville Havu, Xinguo Ren, Karsten Reuter, and Matthias Scheffler,
            'Ab Initio Molecular Simulations with Numeric Atom-Centered Orbitals',
            Computer Physics Communications 180, 2175-2196 (2009)

          In addition, many other developments in FHI-aims are likely important for
          your particular application. A partial list of references is given at the end of
          this file. Thank you for giving credit to the authors of these developments.

          For any questions about FHI-aims, please visit our slack channel at

            https://fhi-aims.slack.com

          and our main development and support site at

            https://aims-git.rz-berlin.mpg.de .

          The latter site, in particular, has a wiki to collect information, as well
          as an issue tracker to log discussions, suggest improvements, and report issues
          or bugs. https://aims-git.rz-berlin.mpg.de is also the main development site
          of the project and all new and updated code versions can be obtained there.
          Please send an email to aims-coordinators@fhi-berlin.mpg.de and we will add
          you to these sites. They are for you and everyone is welcome there.

------------------------------------------------------------



  Date     :  20210720, Time     :  160932.142
  Time zero on CPU 1             :   0.170260000000000E+00  s.
  Internal wall clock time zero  :           396029372.142  s.

  FHI-aims created a unique identifier for this run for later identification
  aims_uuid : 6D6FE220-4939-4865-A9E1-1A0E91FF42C0

  Build configuration of the current instance of FHI-aims
  -------------------------------------------------------
  FHI-aims version      : 210413
  Commit number         : e4873593e
  CMake host system     : Linux-4.12.14-122.57-default
  CMake version         : 3.5.2
  Fortran compiler      : /mpcdf/soft/SLE_12/packages/x86_64/intel_parallel_studio/2020.1/compilers_and_libraries_2020.1.217/linux/mpi/intel64/bin/mpiifort (Intel) version 19.1.0.20200306
  Fortran compiler flags: -O3 -ip -fp-model precise
  C compiler            : /mpcdf/soft/SLE_12/packages/x86_64/intel/19.1.1/bin/icc (Intel) version 19.1.0.20200306
  C compiler flags      : -O3 -ip -fp-model precise -std=gnu99
  C++ compiler          : /mpcdf/soft/SLE_12/packages/x86_64/intel/19.1.1/bin/icpc (Intel) version 19.1.0.20200306
  C++ compiler flags    : -O3 -ip -fp-model precise -std=gnu99
  Using MPI
  Using ScaLAPACK
  Using LibXC
  Using i-PI
  Using RLSY
  Linking against: /mpcdf/soft/SLE_12/packages/x86_64/intel_parallel_studio/2020.1/mkl/lib/intel64/libmkl_intel_lp64.so
                   /mpcdf/soft/SLE_12/packages/x86_64/intel_parallel_studio/2020.1/mkl/lib/intel64/libmkl_sequential.so
                   /mpcdf/soft/SLE_12/packages/x86_64/intel_parallel_studio/2020.1/mkl/lib/intel64/libmkl_core.so
                   /mpcdf/soft/SLE_12/packages/x86_64/intel_parallel_studio/2020.1/mkl/lib/intel64/libmkl_blacs_intelmpi_lp64.so
                   /mpcdf/soft/SLE_12/packages/x86_64/intel_parallel_studio/2020.1/mkl/lib/intel64/libmkl_scalapack_lp64.so

  Using      160 parallel tasks.
  Task        0 on host co2500 reporting.
  Task        1 on host co2500 reporting.
  Task        2 on host co2500 reporting.
  Task        3 on host co2500 reporting.
  Task        4 on host co2500 reporting.
  Task        5 on host co2500 reporting.
  Task        6 on host co2500 reporting.
  Task        7 on host co2500 reporting.
  Task        8 on host co2500 reporting.
  Task        9 on host co2500 reporting.
  Task       10 on host co2500 reporting.
  Task       11 on host co2500 reporting.
  Task       12 on host co2500 reporting.
  Task       13 on host co2500 reporting.
  Task       14 on host co2500 reporting.
  Task       15 on host co2500 reporting.
  Task       16 on host co2500 reporting.
  Task       17 on host co2500 reporting.
  Task       18 on host co2500 reporting.
  Task       19 on host co2500 reporting.
  Task       20 on host co2500 reporting.
  Task       21 on host co2500 reporting.
  Task       22 on host co2500 reporting.
  Task       23 on host co2500 reporting.
  Task       24 on host co2500 reporting.
  Task       25 on host co2500 reporting.
  Task       26 on host co2500 reporting.
  Task       27 on host co2500 reporting.
  Task       28 on host co2500 reporting.
  Task       29 on host co2500 reporting.
  Task       30 on host co2500 reporting.
  Task       31 on host co2500 reporting.
  Task       32 on host co2500 reporting.
  Task       33 on host co2500 reporting.
  Task       34 on host co2500 reporting.
  Task       35 on host co2500 reporting.
  Task       36 on host co2500 reporting.
  Task       37 on host co2500 reporting.
  Task       38 on host co2500 reporting.
  Task       39 on host co2500 reporting.
  Task       40 on host co2506 reporting.
  Task       41 on host co2506 reporting.
  Task       42 on host co2506 reporting.
  Task       43 on host co2506 reporting.
  Task       44 on host co2506 reporting.
  Task       45 on host co2506 reporting.
  Task       46 on host co2506 reporting.
  Task       47 on host co2506 reporting.
  Task       48 on host co2506 reporting.
  Task       49 on host co2506 reporting.
  Task       50 on host co2506 reporting.
  Task       51 on host co2506 reporting.
  Task       52 on host co2506 reporting.
  Task       53 on host co2506 reporting.
  Task       54 on host co2506 reporting.
  Task       55 on host co2506 reporting.
  Task       56 on host co2506 reporting.
  Task       57 on host co2506 reporting.
  Task       58 on host co2506 reporting.
  Task       59 on host co2506 reporting.
  Task       60 on host co2506 reporting.
  Task       61 on host co2506 reporting.
  Task       62 on host co2506 reporting.
  Task       63 on host co2506 reporting.
  Task       64 on host co2506 reporting.
  Task       65 on host co2506 reporting.
  Task       66 on host co2506 reporting.
  Task       67 on host co2506 reporting.
  Task       68 on host co2506 reporting.
  Task       69 on host co2506 reporting.
  Task       70 on host co2506 reporting.
  Task       71 on host co2506 reporting.
  Task       72 on host co2506 reporting.
  Task       73 on host co2506 reporting.
  Task       74 on host co2506 reporting.
  Task       75 on host co2506 reporting.
  Task       76 on host co2506 reporting.
  Task       77 on host co2506 reporting.
  Task       78 on host co2506 reporting.
  Task       79 on host co2506 reporting.
  Task       80 on host co2509 reporting.
  Task       81 on host co2509 reporting.
  Task       82 on host co2509 reporting.
  Task       83 on host co2509 reporting.
  Task       84 on host co2509 reporting.
  Task       85 on host co2509 reporting.
  Task       86 on host co2509 reporting.
  Task       87 on host co2509 reporting.
  Task       88 on host co2509 reporting.
  Task       89 on host co2509 reporting.
  Task       90 on host co2509 reporting.
  Task       91 on host co2509 reporting.
  Task       92 on host co2509 reporting.
  Task       93 on host co2509 reporting.
  Task       94 on host co2509 reporting.
  Task       95 on host co2509 reporting.
  Task       96 on host co2509 reporting.
  Task       97 on host co2509 reporting.
  Task       98 on host co2509 reporting.
  Task       99 on host co2509 reporting.
  Task      100 on host co2509 reporting.
  Task      101 on host co2509 reporting.
  Task      102 on host co2509 reporting.
  Task      103 on host co2509 reporting.
  Task      104 on host co2509 reporting.
  Task      105 on host co2509 reporting.
  Task      106 on host co2509 reporting.
  Task      107 on host co2509 reporting.
  Task      108 on host co2509 reporting.
  Task      109 on host co2509 reporting.
  Task      110 on host co2509 reporting.
  Task      111 on host co2509 reporting.
  Task      112 on host co2509 reporting.
  Task      113 on host co2509 reporting.
  Task      114 on host co2509 reporting.
  Task      115 on host co2509 reporting.
  Task      116 on host co2509 reporting.
  Task      117 on host co2509 reporting.
  Task      118 on host co2509 reporting.
  Task      119 on host co2509 reporting.
  Task      120 on host co2520 reporting.
  Task      121 on host co2520 reporting.
  Task      122 on host co2520 reporting.
  Task      123 on host co2520 reporting.
  Task      124 on host co2520 reporting.
  Task      125 on host co2520 reporting.
  Task      126 on host co2520 reporting.
  Task      127 on host co2520 reporting.
  Task      128 on host co2520 reporting.
  Task      129 on host co2520 reporting.
  Task      130 on host co2520 reporting.
  Task      131 on host co2520 reporting.
  Task      132 on host co2520 reporting.
  Task      133 on host co2520 reporting.
  Task      134 on host co2520 reporting.
  Task      135 on host co2520 reporting.
  Task      136 on host co2520 reporting.
  Task      137 on host co2520 reporting.
  Task      138 on host co2520 reporting.
  Task      139 on host co2520 reporting.
  Task      140 on host co2520 reporting.
  Task      141 on host co2520 reporting.
  Task      142 on host co2520 reporting.
  Task      143 on host co2520 reporting.
  Task      144 on host co2520 reporting.
  Task      145 on host co2520 reporting.
  Task      146 on host co2520 reporting.
  Task      147 on host co2520 reporting.
  Task      148 on host co2520 reporting.
  Task      149 on host co2520 reporting.
  Task      150 on host co2520 reporting.
  Task      151 on host co2520 reporting.
  Task      152 on host co2520 reporting.
  Task      153 on host co2520 reporting.
  Task      154 on host co2520 reporting.
  Task      155 on host co2520 reporting.
  Task      156 on host co2520 reporting.
  Task      157 on host co2520 reporting.
  Task      158 on host co2520 reporting.
  Task      159 on host co2520 reporting.

  Performing system and environment tests:
  | Environment variable OMP_NUM_THREADS correctly set to 1.
  | Checking for ScaLAPACK...
  | Testing pdtran()...
  | All pdtran() tests passed.

  Obtaining array dimensions for all initial allocations:
  
  -----------------------------------------------------------------------
  Parsing control.in (first pass over file, find array dimensions only).
  The contents of control.in will be repeated verbatim below
  unless switched off by setting 'verbatim_writeout .false.' .
  in the first line of control.in .
  -----------------------------------------------------------------------
  
  ##### Physical settings  ################
  xc                 pbe
  spin               none
  charge      0.0
  relativistic       atomic_zora scalar
  #elsi_restart read
  # SCF settings
  
  
  relax_geometry  bfgs 1e-03
  relax_unit_cell full          #for bulk
  #vdw_correction_hirshfeld
  harmonic_length_scale 0.09
  energy_tolerance  1E-3
  occupation_type gaussian       0.01
  # k-grid settings  (to be adjusted)
  k_grid  2 2 1
  #empty_states 8
  use_dipole_correction
  include_spin_orbit non_self_consistent
  
  sc_accuracy_rho    1E-4
  sc_accuracy_eev    1E-3
  sc_accuracy_etot   1E-4
  sc_accuracy_forces 1E-3
  
  #output cube stm -0.5
  mixer   pulay
  n_max_pulay        12 # high for metal
  charge_mix_param   0.07 #low for metal
  
  #output cube stm -0.5
  many_body_dispersion_nl    beta=0.81
  ################################################################################
  #
  #  FHI-aims code project
  # Volker Blum, Fritz Haber Institute Berlin, 2009
  #
  #  Suggested "tight" defaults for S atom (to be pasted into control.in file)
  #
  #  Revised Jan 04, 2011, following tests (SiC) done by Lydia Nemec:
  #     d and g functions of tier 2 now enabled by default.
  #
  ################################################################################
    species        S
  #     global species definitions
      nucleus             16
      mass                32.065
  #
      l_hartree           6
  #
      cut_pot             4.0          2.0  1.0
      basis_dep_cutoff    1e-4
  #
      radial_base         44 7.0
      radial_multiplier   2
      angular_grids       specified
        division   0.4665  110
        division   0.5810  194
        division   0.7139  302
        division   0.8274  434
  #      division   0.9105  590
  #      division   1.0975  770
  #      division   1.2028  974
  #      outer_grid  974
        outer_grid  434
  ################################################################################
  #
  #  Definition of "minimal" basis
  #
  ################################################################################
  #     valence basis states
      valence      3  s   2.
      valence      3  p   4.
  #     ion occupancy
      ion_occ      3  s   1.
      ion_occ      3  p   3.
  ################################################################################
  #
  #  Suggested additional basis functions. For production calculations,
  #  uncomment them one after another (the most important basis functions are
  #  listed first).
  #
  #  Constructed for dimers: 1.6 A, 1.9 A, 2.5 A, 3.25 A, 4.0 A
  #
  ################################################################################
  #  "First tier" - improvements: -652.81 meV to -45.53 meV
       ionic 3 d auto
       hydro 2 p 1.8
       hydro 4 f 7
       ionic 3 s auto
  #  "Second tier" - improvements: -30.20 meV to -1.74 meV
       hydro 4 d 6.2
       hydro 5 g 10.8
  #     hydro 4 p 4.9
  #     hydro 5 f 10
  #     hydro 1 s 0.8
  #  "Third tier" - improvements: -1.04 meV to -0.20 meV
  #     hydro 3 d 3.9
  #     hydro 3 d 2.7
  #     hydro 5 g 12
  #     hydro 4 p 10.4
  #     hydro 5 f 12.4
  #     hydro 2 s 1.9
  #  "Fourth tier" - improvements: -0.35 meV to -0.06 meV
  #     hydro 4 d 10.4
  #     hydro 4 p 7.2
  #     hydro 4 d 10
  #     hydro 5 g 19.2
  #     hydro 4 s 12
  
  ################################################################################
  #
  # For methods that use the localized form of the "resolution of identity" for
  # the two-electron Coulomb operator (RI_method LVL), particularly Hartree-Fock and
  # hybrid density functional calculations, the highest accuracy can be obtained by
  # uncommenting the line beginning with "for_aux"  below, thus adding an extra g radial
  # function to the construction of the product basis set for the expansion.
  # See Ref. New J. Phys. 17, 093020 (2015) for more information, particularly Figs. 1 and 6.
  #
  ################################################################################
  #
  # for_aux hydro 5 g 6.0
  ################################################################################
  #
  #  FHI-aims code project
  # Volker Blum, Fritz Haber Institute Berlin, 2009
  #
  #  Suggested "tight" defaults for Mo atom (to be pasted into control.in file)
  #
  ################################################################################
    species        Mo
  #     global species definitions
      nucleus             42
      mass                95.94
  #
      l_hartree           6
  #
      cut_pot             4.0  2.0  1.0
      basis_dep_cutoff    1e-4
  #
      radial_base         59 7.0
      radial_multiplier   2
      angular_grids specified
        division   0.3117   50
        division   0.6750  110
        division   1.0351  194
        division   1.2073  302
        division   1.6402  434
  #      division   1.9185  590
  #      division   2.0237  770
  #      division   2.0980  974
  #      division   2.7972 1202
  #      outer_grid  974
        outer_grid  434
  ################################################################################
  #
  #  Definition of "minimal" basis
  #
  ################################################################################
  #     valence basis states
      valence      5  s   1.
      valence      4  p   6.
      valence      4  d   5.
  #     ion occupancy
      ion_occ     5  s   0.
      ion_occ     4  p   6.
      ion_occ     4  d   4.
  ################################################################################
  #
  #  Suggested additional basis functions. For production calculations,
  #  uncomment them one after another (the most important basis functions are
  #  listed first).
  #
  #  Constructed for dimers: 1.675 A, 1.9 A, 2.375 A, 3.00 A, 4.00 A
  #
  ################################################################################
  #  "First tier"  - max. impr. -711.23  meV, min. impr. -21.07 meV
       hydro 4 f 8.4
       hydro 3 d 2.8
       ionic 5 p auto
       hydro 5 g 12
       ionic 5 s auto
  #  "Second tier" - max. impr. -39.38  meV, min. impr. -2.68 meV
  #     hydro 4 f 12.4
  #     hydro 3 d 3.3
  #     hydro 6 h 17.2
  #     hydro 4 f 7.6
  #     hydro 3 p 3.0
  #     hydro 1 s 0.65
  #  "Third tier"  - max. impr. -5.50 meV, min. impr. -0.47 meV
  #     hydro 4 f 29.2
  #     hydro 5 g 11.2
  #     hydro 3 d 6.8
  #     hydro 6 h 14.8
  #     hydro 2 p 2.3
  #     hydro 4 s 3.8
  #  "Fourth tier"  - max. impr. -0.58 meV, min. impr. -0.19 meV
  #     hydro 5 f 6.8
  #     hydro 5 d 14.8
  #     hydro 6 s 7.8
  #     hydro 5 g 20.8
  #     hydro 5 d 10.4
  #     hydro 5 p 9.8
  #  Further functions - -0.17 meV and below
  #     hydro 5 d 3.2
  ################################################################################
  #
  #  FHI-aims code project
  # Volker Blum, Fritz Haber Institute Berlin, 2009
  #
  #  Suggested "tight" defaults for W atom (to be pasted into control.in file)
  #
  ################################################################################
    species          W
  #     global species definitions
      nucleus        74
      mass           183.84
  #
      l_hartree      6
  #
      cut_pot        4.0  2.0  1.0
      basis_dep_cutoff    1e-4
  #
      radial_base    71  7.0
      radial_multiplier  2
      angular_grids specified
        division   0.2901   50
        division   0.6986  110
        division   1.0528  194
        division   1.2659  302
        division   1.5223  434
  #      division   1.8111  590
  #      division   2.0105  770
  #      division   2.0413  974
  #      division   2.8804 1202
  #      outer_grid  974
        outer_grid  434
  ################################################################################
  #
  #  Definition of "minimal" basis
  #
  ################################################################################
  #     valence basis states
      valence      6  s   2.
      valence      5  p   6.
      valence      5  d   4.
      valence      4  f  14.
  #     ion occupancy
      ion_occ      6  s   1.
      ion_occ      5  p   6.
      ion_occ      5  d   3.
      ion_occ      4  f  14.
  ################################################################################
  #
  #  Suggested additional basis functions. For production calculations,
  #  uncomment them one after another (the most important basis functions are
  #  listed first).
  #
  #  Constructed for dimers: 1.775, 1.99, 2.50, 3.25, 4.50 AA
  #
  ################################################################################
  #
  #  "First tier" - improvements: -603.77 meV to -28.99 meV
       hydro 4 f 7.8
       hydro 4 d 5.8
       ionic 6 p auto
       hydro 5 g 12.4
       ionic 6 s auto
  #  "Second tier" - improvements: -28.30 meV to -1.31 meV
  #     hydro 6 h 16.8
  #     ionic 5 d auto
  #     hydro 4 f 8.6
  #     hydro 5 g 16.8
  #     hydro 5 d 8.4
  #     hydro 3 p 3.3
  #     hydro 1 s 0.55
  #  "Third tier" - max. impr. -1.79 meV, min. impr. -0.26 meV
  #     hydro 5 f 10.8
  #     hydro 5 g 34.4
  #     hydro 6 h 20.8
  #     hydro 5 g 12.8
  #     hydro 2 p 1.6
  #     hydro 4 s 4.7
  #     hydro 6 d 18.4
  #  "Fourth tier" -0.46 max. impr. - meV, min. impr. -0.09 meV
  #     hydro 6 h 21.6
  #     hydro 5 f 22.4
  #     hydro 4 f 4
  #     hydro 5 p 9.6
  #     hydro 6 d 17.2
  #     hydro 3 p 5.2
  #     hydro 5 g 4.7
  #     hydro 6 s 7.6
  ################################################################################
  #
  #  FHI-aims code project
  # Volker Blum, Fritz Haber Institute Berlin, 2009
  #
  #  Suggested "tight" defaults for Se atom (to be pasted into control.in file)
  #
  ################################################################################
    species        Se
  #     global species definitions
      nucleus             34
      mass                78.96
  #
      l_hartree           6
  #
      cut_pot             4.0          2.0  1.0
      basis_dep_cutoff    1e-4
  #
      radial_base         55 7.0
      radial_multiplier   2
      angular_grids       specified
        division   0.0830  110
        division   0.1357  194
        division   0.7377  302
        division   0.8610  434
  #      division   0.9640  590
  #      division   1.0773  770
  #      division   2.5539  974
  #      outer_grid  974
        outer_grid  434
  ################################################################################
  #
  #  Definition of "minimal" basis
  #
  ################################################################################
  #     valence basis states
      valence      4  s   2.
      valence      4  p   4.
      valence      3  d  10.
  #     ion occupancy
      ion_occ      4  s   1.
      ion_occ      4  p   3.
      ion_occ      3  d  10.
  ################################################################################
  #
  #  Suggested additional basis functions. For production calculations,
  #  uncomment them one after another (the most important basis functions are
  #  listed first).
  #
  #  Constructed for dimers: 1.85 A, 2.15 A, 2.50 A, 3.00 A, 4.00 A
  #
  ################################################################################
  #  "First tier" - improvements: -336.21 meV to -36.85 meV
       hydro 3 d 4.3
       hydro 2 p 1.6
       hydro 4 f 7.2
       ionic 4 s auto
  #  "Second tier" - improvements: -14.39 meV to -1.49 meV
  #     hydro 5 g 10.4
  #     hydro 4 p 4.5
  #     hydro 4 d 6.2
  #     hydro 4 f 11.2
  #     hydro 1 s 0.65
  #     hydro 6 h 15.2
  #  "Third tier" - improvements: -0.46 meV and below
  #     hydro 5 g 14.4
  #     ionic 4 d auto
  #     hydro 4 f 22.4
  #     hydro 5 f 7.4
  #     hydro 5 p 8
  #     hydro 5 s 9.4
  #  "Fourth tier" - improvements: -0.12 meV and below
  #     hydro 5 d 11.6
  #     hydro 6 h 18
  #     hydro 4 p 4
  #     hydro 5 f 16
  #     hydro 4 s 3.9
  
  
  
  -----------------------------------------------------------------------
  Completed first pass over input file control.in .
  -----------------------------------------------------------------------
  
  
  -----------------------------------------------------------------------
  Parsing geometry.in (first pass over file, find array dimensions only).
  The contents of geometry.in will be repeated verbatim below
  unless switched off by setting 'verbatim_writeout .false.' .
  in the first line of geometry.in .
  -----------------------------------------------------------------------
  
  #=======================================================
  # FHI-aims file: geometry_monolayer.in
  # Created using the Atomic Simulation Environment (ASE)
  # Wed Jun  2 16:13:52 2021
  #=======================================================
  lattice_vector 3.1800000000000002 0.0000000000000000 0.0000000000000000
  lattice_vector -1.5900000000000001 2.7539607840345148 0.0000000000000000
  lattice_vector 0.0000000000000000 -0.0000000000000000 100.00000
  atom 0.0000000000000000 0.9179869280115049 2.6000000000000001 W
  atom 1.5900000000000001 1.8359738560230099 4.2000000000000002 S
  atom 1.5900000000000001 1.8359738560230099 1.0000000000000000 S
  
  -----------------------------------------------------------------------
  Completed first pass over input file geometry.in .
  -----------------------------------------------------------------------
  

  Basic array size parameters:
  | Number of species                 :        4
  | Number of atoms                   :        3
  | Number of lattice vectors         :        3
  | Max. basis fn. angular momentum   :        4
  | Max. atomic/ionic basis occupied n:        6
  | Max. number of basis fn. types    :        3
  | Max. radial fns per species/type  :       14
  | Max. logarithmic grid size        :     1483
  | Max. radial integration grid size :      143
  | Max. angular integration grid size:      434
  | Max. angular grid division number :        8
  | Radial grid for Hartree potential :     1483
  | Number of spin channels           :        1

------------------------------------------------------------
          Reading file control.in.
------------------------------------------------------------
  XC: Using PBE gradient-corrected functionals.
  Spin treatment: No spin polarisation.
  Charge =   0.000000E+00: Neutral system requested explicitly.
  Scalar relativistic treatment of kinetic energy: on-site free-atom approximation to ZORA.
  Geometry relaxation: Modified BFGS - TRM (trust radius method) for lattice optimization.
  Convergence accuracy for geometry relaxation: Maximum force <   0.100000E-02 eV/A.
  Assuming qualitatively harmonic for steps shorter than   0.900000E-01 A.
  Max energy increase before discarding BFGS move:   0.100000E-02 eV
  Occupation type: Gaussian broadening, width =   0.100000E-01 eV.
  Found k-point grid:         2         2         1
  Using dipole correction.
  Calculating non-self-consistent second-variational spin-orbit coupling after scf-cycle
  Convergence accuracy of self-consistent charge density:  0.1000E-03
  Convergence accuracy of sum of eigenvalues:  0.1000E-02
  Convergence accuracy of total energy:  0.1000E-03
  Convergence accuracy of forces:  0.1000E-02
  Using pulay charge density mixing.
  Pulay mixing - number of memorized iterations:   12
  Charge density mixing - mixing parameter:     0.0700
  Using libMBD for calculating MBD and TS energies
 
  Reading configuration options for species S                   .
  | Found nuclear charge :  16.0000
  | Found atomic mass :    32.0650000000000      amu
  | Found l_max for Hartree potential  :   6
  | Found cutoff potl. onset [A], width [A], scale factor :    4.00000    2.00000    1.00000
  | Threshold for basis-dependent cutoff potential is   0.100000E-03
  | Found data for basic radial integration grid :    44 points, outermost radius =    7.000 A
  | Found multiplier for basic radial grid :   2
  | Found angular grid specification: user-specified.
  | Specified grid contains     5 separate shells.
  | Check grid settings after all constraints further below.
  | Found free-atom valence shell :  3 s   2.000
  | Found free-atom valence shell :  3 p   4.000
  | Found free-ion valence shell :  3 s   1.000
  | Found free-ion valence shell :  3 p   3.000
  | Found ionic basis function :  3 d , default cutoff radius.
  | Found hydrogenic basis function :  2 p   1.800
  | Found hydrogenic basis function :  4 f   7.000
  | Found ionic basis function :  3 s , default cutoff radius.
  | Found hydrogenic basis function :  4 d   6.200
  | Found hydrogenic basis function :  5 g  10.800
  Species S                   : Missing cutoff potential type.
  Defaulting to exp(1/x)/(1-x)^2 type cutoff potential.
  Species S : No 'logarithmic' tag. Using default grid for free atom:
  | Default logarithmic grid data [bohr] : 0.1000E-03 0.1000E+03 0.1012E+01
  | Will include ionic basis functions of  2.0-fold positive S                    ion.
  Species S : On-site basis accuracy parameter (for Gram-Schmidt orthonormalisation) not specified.
  Using default value basis_acc =  0.1000000E-03.
  Species S                   : Using default innermost maximum threshold i_radial=  2 for radial functions.
  Species S                   : Default cutoff onset for free atom density etc. : 0.40000000E+01 AA.
  Species S                   : Basic radial grid will be enhanced according to radial_multiplier =   2, to contain    89 grid points.
 
  Reading configuration options for species Mo                  .
  | Found nuclear charge :  42.0000
  | Found atomic mass :    95.9400000000000      amu
  | Found l_max for Hartree potential  :   6
  | Found cutoff potl. onset [A], width [A], scale factor :    4.00000    2.00000    1.00000
  | Threshold for basis-dependent cutoff potential is   0.100000E-03
  | Found data for basic radial integration grid :    59 points, outermost radius =    7.000 A
  | Found multiplier for basic radial grid :   2
  | Found angular grid specification: user-specified.
  | Specified grid contains     6 separate shells.
  | Check grid settings after all constraints further below.
  | Found free-atom valence shell :  5 s   1.000
  | Found free-atom valence shell :  4 p   6.000
  | Found free-atom valence shell :  4 d   5.000
  | Found free-ion valence shell :  5 s   0.000
  | Found free-ion valence shell :  4 p   6.000
  | Found free-ion valence shell :  4 d   4.000
  | Found hydrogenic basis function :  4 f   8.400
  | Found hydrogenic basis function :  3 d   2.800
  | Found ionic basis function :  5 p , default cutoff radius.
  | Found hydrogenic basis function :  5 g  12.000
  | Found ionic basis function :  5 s , default cutoff radius.
  Species Mo                  : Missing cutoff potential type.
  Defaulting to exp(1/x)/(1-x)^2 type cutoff potential.
  Species Mo: No 'logarithmic' tag. Using default grid for free atom:
  | Default logarithmic grid data [bohr] : 0.1000E-03 0.1000E+03 0.1012E+01
  | Will include ionic basis functions of  2.0-fold positive Mo                   ion.
  Species Mo: On-site basis accuracy parameter (for Gram-Schmidt orthonormalisation) not specified.
  Using default value basis_acc =  0.1000000E-03.
  Species Mo                  : Using default innermost maximum threshold i_radial=  2 for radial functions.
  Species Mo                  : Default cutoff onset for free atom density etc. : 0.40000000E+01 AA.
  Species Mo                  : Basic radial grid will be enhanced according to radial_multiplier =   2, to contain   119 grid points.
 
  Reading configuration options for species W                   .
  | Found nuclear charge :  74.0000
  | Found atomic mass :    183.840000000000      amu
  | Found l_max for Hartree potential  :   6
  | Found cutoff potl. onset [A], width [A], scale factor :    4.00000    2.00000    1.00000
  | Threshold for basis-dependent cutoff potential is   0.100000E-03
  | Found data for basic radial integration grid :    71 points, outermost radius =    7.000 A
  | Found multiplier for basic radial grid :   2
  | Found angular grid specification: user-specified.
  | Specified grid contains     6 separate shells.
  | Check grid settings after all constraints further below.
  | Found free-atom valence shell :  6 s   2.000
  | Found free-atom valence shell :  5 p   6.000
  | Found free-atom valence shell :  5 d   4.000
  | Found free-atom valence shell :  4 f  14.000
  | Found free-ion valence shell :  6 s   1.000
  | Found free-ion valence shell :  5 p   6.000
  | Found free-ion valence shell :  5 d   3.000
  | Found free-ion valence shell :  4 f  14.000
  | Found hydrogenic basis function :  4 f   7.800
  | Found hydrogenic basis function :  4 d   5.800
  | Found ionic basis function :  6 p , default cutoff radius.
  | Found hydrogenic basis function :  5 g  12.400
  | Found ionic basis function :  6 s , default cutoff radius.
  Species W                   : Missing cutoff potential type.
  Defaulting to exp(1/x)/(1-x)^2 type cutoff potential.
  Species W : No 'logarithmic' tag. Using default grid for free atom:
  | Default logarithmic grid data [bohr] : 0.1000E-03 0.1000E+03 0.1012E+01
  | Will include ionic basis functions of  2.0-fold positive W                    ion.
  Species W : On-site basis accuracy parameter (for Gram-Schmidt orthonormalisation) not specified.
  Using default value basis_acc =  0.1000000E-03.
  Species W                   : Using default innermost maximum threshold i_radial=  2 for radial functions.
  Species W                   : Default cutoff onset for free atom density etc. : 0.40000000E+01 AA.
  Species W                   : Basic radial grid will be enhanced according to radial_multiplier =   2, to contain   143 grid points.
 
  Reading configuration options for species Se                  .
  | Found nuclear charge :  34.0000
  | Found atomic mass :    78.9600000000000      amu
  | Found l_max for Hartree potential  :   6
  | Found cutoff potl. onset [A], width [A], scale factor :    4.00000    2.00000    1.00000
  | Threshold for basis-dependent cutoff potential is   0.100000E-03
  | Found data for basic radial integration grid :    55 points, outermost radius =    7.000 A
  | Found multiplier for basic radial grid :   2
  | Found angular grid specification: user-specified.
  | Specified grid contains     5 separate shells.
  | Check grid settings after all constraints further below.
  | Found free-atom valence shell :  4 s   2.000
  | Found free-atom valence shell :  4 p   4.000
  | Found free-atom valence shell :  3 d  10.000
  | Found free-ion valence shell :  4 s   1.000
  | Found free-ion valence shell :  4 p   3.000
  | Found free-ion valence shell :  3 d  10.000
  | Found hydrogenic basis function :  3 d   4.300
  | Found hydrogenic basis function :  2 p   1.600
  | Found hydrogenic basis function :  4 f   7.200
  | Found ionic basis function :  4 s , default cutoff radius.
  Species Se                  : Missing cutoff potential type.
  Defaulting to exp(1/x)/(1-x)^2 type cutoff potential.
  Species Se: No 'logarithmic' tag. Using default grid for free atom:
  | Default logarithmic grid data [bohr] : 0.1000E-03 0.1000E+03 0.1012E+01
  | Will include ionic basis functions of  2.0-fold positive Se                   ion.
  Species Se: On-site basis accuracy parameter (for Gram-Schmidt orthonormalisation) not specified.
  Using default value basis_acc =  0.1000000E-03.
  Species Se                  : Using default innermost maximum threshold i_radial=  2 for radial functions.
  Species Se                  : Default cutoff onset for free atom density etc. : 0.40000000E+01 AA.
  Species Se                  : Basic radial grid will be enhanced according to radial_multiplier =   2, to contain   111 grid points.
 
  Finished reading input file 'control.in'.
 
------------------------------------------------------------


------------------------------------------------------------
          Reading geometry description geometry.in.
------------------------------------------------------------
  | The smallest distance between any two atoms is         2.43532339 AA.
  | The first atom of this pair is atom number                      1 .
  | The second atom of this pair is atom number                     3 .
  | Wigner-Seitz cell of the first atom image           0     0     0 .
  | (The Wigner-Seitz cell of the second atom is 0 0 0  by definition.)

  Symmetry information by spglib:
  | Precision set to  0.1E-04
  | Number of Operations  : 12
  | Space group           : 187
  | International         : P-6m2
  | Schoenflies           : D3h^1
  Input structure read successfully.
  The structure contains        3 atoms,  and a total of        106.000 electrons.

  Input geometry:
  | Unit cell:
  |        3.18000000        0.00000000        0.00000000
  |       -1.59000000        2.75396078        0.00000000
  |        0.00000000        0.00000000      100.00000000
  | Atomic structure:
  |       Atom                x [A]            y [A]            z [A]
  |    1: Species W             0.00000000        0.91798693        2.60000000
  |    2: Species S             1.59000000        1.83597386        4.20000000
  |    3: Species S             1.59000000        1.83597386        1.00000000

  Lattice parameters for 3D lattice (in Angstroms) :     3.180000    3.180000  100.000000
  Angle(s) between unit vectors (in degrees)       :    90.000000   90.000000  120.000000


  Quantities derived from the lattice vectors:
  | Reciprocal lattice vector 1:  1.975844  1.140754  0.000000
  | Reciprocal lattice vector 2: -0.000000  2.281509  0.000000
  | Reciprocal lattice vector 3:  0.000000  0.000000  0.062832
  | Unit cell volume                               :   0.875760E+03  A^3

  Fractional coordinates:
                         L1                L2                L3
       atom_frac         0.16666667        0.33333333        0.02600000  W
       atom_frac         0.83333333        0.66666667        0.04200000  S
       atom_frac         0.83333333        0.66666667        0.01000000  S

 
  Finished reading input file 'control.in'.
 

------------------------------------------------------------
          Reading geometry description geometry.in.
------------------------------------------------------------
 
  Consistency checks for stacksize environment parameter are next.
 
  | Maximum stacksize for task 0: unlimited
  | Maximum stacksize for task 1: unlimited
  | Maximum stacksize for task 2: unlimited
  | Maximum stacksize for task 3: unlimited
  | Maximum stacksize for task 4: unlimited
  | Maximum stacksize for task 5: unlimited
  | Maximum stacksize for task 6: unlimited
  | Maximum stacksize for task 7: unlimited
  | Maximum stacksize for task 8: unlimited
  | Maximum stacksize for task 9: unlimited
  | Maximum stacksize for task 10: unlimited
  | Maximum stacksize for task 11: unlimited
  | Maximum stacksize for task 12: unlimited
  | Maximum stacksize for task 13: unlimited
  | Maximum stacksize for task 14: unlimited
  | Maximum stacksize for task 15: unlimited
  | Maximum stacksize for task 16: unlimited
  | Maximum stacksize for task 17: unlimited
  | Maximum stacksize for task 18: unlimited
  | Maximum stacksize for task 19: unlimited
  | Maximum stacksize for task 20: unlimited
  | Maximum stacksize for task 21: unlimited
  | Maximum stacksize for task 22: unlimited
  | Maximum stacksize for task 23: unlimited
  | Maximum stacksize for task 24: unlimited
  | Maximum stacksize for task 25: unlimited
  | Maximum stacksize for task 26: unlimited
  | Maximum stacksize for task 27: unlimited
  | Maximum stacksize for task 28: unlimited
  | Maximum stacksize for task 29: unlimited
  | Maximum stacksize for task 30: unlimited
  | Maximum stacksize for task 31: unlimited
  | Maximum stacksize for task 32: unlimited
  | Maximum stacksize for task 33: unlimited
  | Maximum stacksize for task 34: unlimited
  | Maximum stacksize for task 35: unlimited
  | Maximum stacksize for task 36: unlimited
  | Maximum stacksize for task 37: unlimited
  | Maximum stacksize for task 38: unlimited
  | Maximum stacksize for task 39: unlimited
  | Maximum stacksize for task 40: unlimited
  | Maximum stacksize for task 41: unlimited
  | Maximum stacksize for task 42: unlimited
  | Maximum stacksize for task 43: unlimited
  | Maximum stacksize for task 44: unlimited
  | Maximum stacksize for task 45: unlimited
  | Maximum stacksize for task 46: unlimited
  | Maximum stacksize for task 47: unlimited
  | Maximum stacksize for task 48: unlimited
  | Maximum stacksize for task 49: unlimited
  | Maximum stacksize for task 50: unlimited
  | Maximum stacksize for task 51: unlimited
  | Maximum stacksize for task 52: unlimited
  | Maximum stacksize for task 53: unlimited
  | Maximum stacksize for task 54: unlimited
  | Maximum stacksize for task 55: unlimited
  | Maximum stacksize for task 56: unlimited
  | Maximum stacksize for task 57: unlimited
  | Maximum stacksize for task 58: unlimited
  | Maximum stacksize for task 59: unlimited
  | Maximum stacksize for task 60: unlimited
  | Maximum stacksize for task 61: unlimited
  | Maximum stacksize for task 62: unlimited
  | Maximum stacksize for task 63: unlimited
  | Maximum stacksize for task 64: unlimited
  | Maximum stacksize for task 65: unlimited
  | Maximum stacksize for task 66: unlimited
  | Maximum stacksize for task 67: unlimited
  | Maximum stacksize for task 68: unlimited
  | Maximum stacksize for task 69: unlimited
  | Maximum stacksize for task 70: unlimited
  | Maximum stacksize for task 71: unlimited
  | Maximum stacksize for task 72: unlimited
  | Maximum stacksize for task 73: unlimited
  | Maximum stacksize for task 74: unlimited
  | Maximum stacksize for task 75: unlimited
  | Maximum stacksize for task 76: unlimited
  | Maximum stacksize for task 77: unlimited
  | Maximum stacksize for task 78: unlimited
  | Maximum stacksize for task 79: unlimited
  | Maximum stacksize for task 80: unlimited
  | Maximum stacksize for task 81: unlimited
  | Maximum stacksize for task 82: unlimited
  | Maximum stacksize for task 83: unlimited
  | Maximum stacksize for task 84: unlimited
  | Maximum stacksize for task 85: unlimited
  | Maximum stacksize for task 86: unlimited
  | Maximum stacksize for task 87: unlimited
  | Maximum stacksize for task 88: unlimited
  | Maximum stacksize for task 89: unlimited
  | Maximum stacksize for task 90: unlimited
  | Maximum stacksize for task 91: unlimited
  | Maximum stacksize for task 92: unlimited
  | Maximum stacksize for task 93: unlimited
  | Maximum stacksize for task 94: unlimited
  | Maximum stacksize for task 95: unlimited
  | Maximum stacksize for task 96: unlimited
  | Maximum stacksize for task 97: unlimited
  | Maximum stacksize for task 98: unlimited
  | Maximum stacksize for task 99: unlimited
  | Maximum stacksize for task 100: unlimited
  | Maximum stacksize for task 101: unlimited
  | Maximum stacksize for task 102: unlimited
  | Maximum stacksize for task 103: unlimited
  | Maximum stacksize for task 104: unlimited
  | Maximum stacksize for task 105: unlimited
  | Maximum stacksize for task 106: unlimited
  | Maximum stacksize for task 107: unlimited
  | Maximum stacksize for task 108: unlimited
  | Maximum stacksize for task 109: unlimited
  | Maximum stacksize for task 110: unlimited
  | Maximum stacksize for task 111: unlimited
  | Maximum stacksize for task 112: unlimited
  | Maximum stacksize for task 113: unlimited
  | Maximum stacksize for task 114: unlimited
  | Maximum stacksize for task 115: unlimited
  | Maximum stacksize for task 116: unlimited
  | Maximum stacksize for task 117: unlimited
  | Maximum stacksize for task 118: unlimited
  | Maximum stacksize for task 119: unlimited
  | Maximum stacksize for task 120: unlimited
  | Maximum stacksize for task 121: unlimited
  | Maximum stacksize for task 122: unlimited
  | Maximum stacksize for task 123: unlimited
  | Maximum stacksize for task 124: unlimited
  | Maximum stacksize for task 125: unlimited
  | Maximum stacksize for task 126: unlimited
  | Maximum stacksize for task 127: unlimited
  | Maximum stacksize for task 128: unlimited
  | Maximum stacksize for task 129: unlimited
  | Maximum stacksize for task 130: unlimited
  | Maximum stacksize for task 131: unlimited
  | Maximum stacksize for task 132: unlimited
  | Maximum stacksize for task 133: unlimited
  | Maximum stacksize for task 134: unlimited
  | Maximum stacksize for task 135: unlimited
  | Maximum stacksize for task 136: unlimited
  | Maximum stacksize for task 137: unlimited
  | Maximum stacksize for task 138: unlimited
  | Maximum stacksize for task 139: unlimited
  | Maximum stacksize for task 140: unlimited
  | Maximum stacksize for task 141: unlimited
  | Maximum stacksize for task 142: unlimited
  | Maximum stacksize for task 143: unlimited
  | Maximum stacksize for task 144: unlimited
  | Maximum stacksize for task 145: unlimited
  | Maximum stacksize for task 146: unlimited
  | Maximum stacksize for task 147: unlimited
  | Maximum stacksize for task 148: unlimited
  | Maximum stacksize for task 149: unlimited
  | Maximum stacksize for task 150: unlimited
  | Maximum stacksize for task 151: unlimited
  | Maximum stacksize for task 152: unlimited
  | Maximum stacksize for task 153: unlimited
  | Maximum stacksize for task 154: unlimited
  | Maximum stacksize for task 155: unlimited
  | Maximum stacksize for task 156: unlimited
  | Maximum stacksize for task 157: unlimited
  | Maximum stacksize for task 158: unlimited
  | Maximum stacksize for task 159: unlimited
  | Current stacksize for task 0: unlimited
  | Current stacksize for task 1: unlimited
  | Current stacksize for task 2: unlimited
  | Current stacksize for task 3: unlimited
  | Current stacksize for task 4: unlimited
  | Current stacksize for task 5: unlimited
  | Current stacksize for task 6: unlimited
  | Current stacksize for task 7: unlimited
  | Current stacksize for task 8: unlimited
  | Current stacksize for task 9: unlimited
  | Current stacksize for task 10: unlimited
  | Current stacksize for task 11: unlimited
  | Current stacksize for task 12: unlimited
  | Current stacksize for task 13: unlimited
  | Current stacksize for task 14: unlimited
  | Current stacksize for task 15: unlimited
  | Current stacksize for task 16: unlimited
  | Current stacksize for task 17: unlimited
  | Current stacksize for task 18: unlimited
  | Current stacksize for task 19: unlimited
  | Current stacksize for task 20: unlimited
  | Current stacksize for task 21: unlimited
  | Current stacksize for task 22: unlimited
  | Current stacksize for task 23: unlimited
  | Current stacksize for task 24: unlimited
  | Current stacksize for task 25: unlimited
  | Current stacksize for task 26: unlimited
  | Current stacksize for task 27: unlimited
  | Current stacksize for task 28: unlimited
  | Current stacksize for task 29: unlimited
  | Current stacksize for task 30: unlimited
  | Current stacksize for task 31: unlimited
  | Current stacksize for task 32: unlimited
  | Current stacksize for task 33: unlimited
  | Current stacksize for task 34: unlimited
  | Current stacksize for task 35: unlimited
  | Current stacksize for task 36: unlimited
  | Current stacksize for task 37: unlimited
  | Current stacksize for task 38: unlimited
  | Current stacksize for task 39: unlimited
  | Current stacksize for task 40: unlimited
  | Current stacksize for task 41: unlimited
  | Current stacksize for task 42: unlimited
  | Current stacksize for task 43: unlimited
  | Current stacksize for task 44: unlimited
  | Current stacksize for task 45: unlimited
  | Current stacksize for task 46: unlimited
  | Current stacksize for task 47: unlimited
  | Current stacksize for task 48: unlimited
  | Current stacksize for task 49: unlimited
  | Current stacksize for task 50: unlimited
  | Current stacksize for task 51: unlimited
  | Current stacksize for task 52: unlimited
  | Current stacksize for task 53: unlimited
  | Current stacksize for task 54: unlimited
  | Current stacksize for task 55: unlimited
  | Current stacksize for task 56: unlimited
  | Current stacksize for task 57: unlimited
  | Current stacksize for task 58: unlimited
  | Current stacksize for task 59: unlimited
  | Current stacksize for task 60: unlimited
  | Current stacksize for task 61: unlimited
  | Current stacksize for task 62: unlimited
  | Current stacksize for task 63: unlimited
  | Current stacksize for task 64: unlimited
  | Current stacksize for task 65: unlimited
  | Current stacksize for task 66: unlimited
  | Current stacksize for task 67: unlimited
  | Current stacksize for task 68: unlimited
  | Current stacksize for task 69: unlimited
  | Current stacksize for task 70: unlimited
  | Current stacksize for task 71: unlimited
  | Current stacksize for task 72: unlimited
  | Current stacksize for task 73: unlimited
  | Current stacksize for task 74: unlimited
  | Current stacksize for task 75: unlimited
  | Current stacksize for task 76: unlimited
  | Current stacksize for task 77: unlimited
  | Current stacksize for task 78: unlimited
  | Current stacksize for task 79: unlimited
  | Current stacksize for task 80: unlimited
  | Current stacksize for task 81: unlimited
  | Current stacksize for task 82: unlimited
  | Current stacksize for task 83: unlimited
  | Current stacksize for task 84: unlimited
  | Current stacksize for task 85: unlimited
  | Current stacksize for task 86: unlimited
  | Current stacksize for task 87: unlimited
  | Current stacksize for task 88: unlimited
  | Current stacksize for task 89: unlimited
  | Current stacksize for task 90: unlimited
  | Current stacksize for task 91: unlimited
  | Current stacksize for task 92: unlimited
  | Current stacksize for task 93: unlimited
  | Current stacksize for task 94: unlimited
  | Current stacksize for task 95: unlimited
  | Current stacksize for task 96: unlimited
  | Current stacksize for task 97: unlimited
  | Current stacksize for task 98: unlimited
  | Current stacksize for task 99: unlimited
  | Current stacksize for task 100: unlimited
  | Current stacksize for task 101: unlimited
  | Current stacksize for task 102: unlimited
  | Current stacksize for task 103: unlimited
  | Current stacksize for task 104: unlimited
  | Current stacksize for task 105: unlimited
  | Current stacksize for task 106: unlimited
  | Current stacksize for task 107: unlimited
  | Current stacksize for task 108: unlimited
  | Current stacksize for task 109: unlimited
  | Current stacksize for task 110: unlimited
  | Current stacksize for task 111: unlimited
  | Current stacksize for task 112: unlimited
  | Current stacksize for task 113: unlimited
  | Current stacksize for task 114: unlimited
  | Current stacksize for task 115: unlimited
  | Current stacksize for task 116: unlimited
  | Current stacksize for task 117: unlimited
  | Current stacksize for task 118: unlimited
  | Current stacksize for task 119: unlimited
  | Current stacksize for task 120: unlimited
  | Current stacksize for task 121: unlimited
  | Current stacksize for task 122: unlimited
  | Current stacksize for task 123: unlimited
  | Current stacksize for task 124: unlimited
  | Current stacksize for task 125: unlimited
  | Current stacksize for task 126: unlimited
  | Current stacksize for task 127: unlimited
  | Current stacksize for task 128: unlimited
  | Current stacksize for task 129: unlimited
  | Current stacksize for task 130: unlimited
  | Current stacksize for task 131: unlimited
  | Current stacksize for task 132: unlimited
  | Current stacksize for task 133: unlimited
  | Current stacksize for task 134: unlimited
  | Current stacksize for task 135: unlimited
  | Current stacksize for task 136: unlimited
  | Current stacksize for task 137: unlimited
  | Current stacksize for task 138: unlimited
  | Current stacksize for task 139: unlimited
  | Current stacksize for task 140: unlimited
  | Current stacksize for task 141: unlimited
  | Current stacksize for task 142: unlimited
  | Current stacksize for task 143: unlimited
  | Current stacksize for task 144: unlimited
  | Current stacksize for task 145: unlimited
  | Current stacksize for task 146: unlimited
  | Current stacksize for task 147: unlimited
  | Current stacksize for task 148: unlimited
  | Current stacksize for task 149: unlimited
  | Current stacksize for task 150: unlimited
  | Current stacksize for task 151: unlimited
  | Current stacksize for task 152: unlimited
  | Current stacksize for task 153: unlimited
  | Current stacksize for task 154: unlimited
  | Current stacksize for task 155: unlimited
  | Current stacksize for task 156: unlimited
  | Current stacksize for task 157: unlimited
  | Current stacksize for task 158: unlimited
  | Current stacksize for task 159: unlimited
 
  Consistency checks for the contents of control.in are next.
 
  MPI_IN_PLACE appears to work with this MPI implementation.
  | Keeping use_mpi_in_place .true. (see manual).
  Target number of points in a grid batch is not set. Defaulting to  100
  Method for grid partitioning is not set. Defaulting to parallel hash+maxmin partitioning.
  Batch size limit is not set. Defaulting to    200
  By default, will store active basis functions for each batch.
  If in need of memory, prune_basis_once .false. can be used to disable this option.
  communication_type for Hartree potential was not specified.
  Defaulting to calc_hartree .
  Pulay mixer: Number of initial linear mixing iterations not set.
  Defaulting to    0 iterations.
  Work space size for distributed Hartree potential not set.
  Defaulting to   0.200000E+03 MB.
  Algorithm-dependent basis array size parameters:
  | n_max_pulay                         :       12
  Maximum number of self-consistency iterations not provided.
  Presetting  1000 iterations.
  Presetting      1001 iterations before the initial mixing cycle
  is restarted anyway using the sc_init_iter criterion / keyword.
  Presetting a factor      1.000 between actual scf density residual
  and density convergence criterion sc_accuracy_rho below which sc_init_iter
  takes no effect.
  No maximum number of relaxation steps, defaulting to     1000
  Default initial Hessian is Lindh matrix (thres = 15.00) plus  0.200000E+01 eV/A^2 times unity.
  Maximum energy tolerance by which TRM/BFGS trajectory may increase over multiple steps:   0.300000E-02
  No trust radius initializer. Defaulting to   0.200000E+00 A.
  Unit cell relaxation: Unit cell will be relaxed fully.
  Unit cell relaxation: Analytical stress will be used.
  Analytical stress will be computed.
  Analytical stress calculation: Only the upper triangle is calculated.
                                 Final output is symmetrized.
  Analytical stress calculation: scf convergence accuracy of stress not set.
                                 Analytical stress self-consistency will not be checked explicitly.
                                 Be sure to set other criteria like sc_accuracy_rho tight enough.
  Handling of forces: Unphysical translation and rotation will be removed from forces.
  No accuracy limit for integral partition fn. given. Defaulting to  0.1000E-14.
  No threshold value for u(r) in integrations given. Defaulting to  0.1000E-05.
  No accuracy for occupation numbers given. Defaulting to  0.1000E-12.
  No threshold value for occupation numbers given. Defaulting to  0.0000E+00.
  No accuracy for fermi level given. Defaulting to  0.1000E-19.
  Maximum # of iterations to find E_F not set. Defaulting to  200.
  Preferred method for the eigenvalue solver ('KS_method') not specified in 'control.in'.
  Calling BLACS routine to test compilation state
  Since ScaLAPACK support is enabled, defaulting to ELPA (via ELSI).
  Will not use alltoall communication since running on < 1024 CPUs.
  Threshold for basis singularities not set.
  Default threshold for basis singularities:  0.1000E-04
  partition_type (choice of integration weights) for integrals was not specified.
  | Using a version of the partition function of Stratmann and coworkers ('stratmann_sparse').
  | At each grid point, the set of atoms used to build the partition table is smoothly restricted to
  | only those atoms whose free-atom density would be non-zero at that grid point.
  Partitioning for Hartree potential was not defined. Using partition_type for integrals.
  | Adjusted default value of keyword multip_moments_threshold to:       0.10000000E-11
  | This value may affect high angular momentum components of the Hartree potential in periodic systems.
  Angular momentum expansion for Kerker preconditioner not set explicitly.
  | Using default value of   0
  No explicit requirement for turning off preconditioner.
  | By default, it will be turned off when the charge convergence reaches
  | sc_accuracy_rho  =   0.100000E-03
  | sc_accuracy_eev  =   0.100000E-02
  | sc_accuracy_etot =   0.100000E-03
  No special mixing parameter while Kerker preconditioner is on.
  Using default: charge_mix_param =     0.0700.
  No q(lm)/r^(l+1) cutoff set for long-range Hartree potential.
  | Using default value of  0.100000E-09 .
  | Verify using the multipole_threshold keyword.
  Defaulting to new monopole extrapolation.
  Density update method: automatic selection selected.
  Using density matrix based charge density update.
  Using density matrix based charge density update.
  Using packed matrix style: index .
  Geometry relaxation: A file "geometry.in.next_step" is written out by default after each step.
  | This file contains the geometry of the current relaxation step as well as
  | the current Hessian matrix needed to restart the relaxation algorithm.
  | If you do not want part or all of this information, use the keywords
  | "write_restart_geometry" or "hessian_to_restart_geometry" to switch the output off.
  Defaulting to use time-reversal symmetry for k-point grid.
  Charge integration errors on the 3D integration grid will be compensated
  by explicit normalization and distribution of residual charges.
  Use the "compensate_multipole_errors" flag to change this behaviour.
 
  Consistency checks for the contents of geometry.in are next.
 

  Range separation radius for Ewald summation (hartree_convergence_parameter):      5.00000000 bohr.
  Number of empty states per atom not set in control.in - providing a guess from actual geometry.
  | Total number of empty states used during s.c.f. cycle:       15
  If you use a very high smearing, use empty_states (per atom!) in control.in to increase this value.

  Structure-dependent array size parameters: 
  | Maximum number of distinct radial functions  :       57
  | Maximum number of basis functions            :      143
  | Number of Kohn-Sham states (occupied + empty):       68
------------------------------------------------------------
 Error: The dipole correction needs vacuum z-level to be defined
 Vacuum level will be determined automatically.
 Determine position of vacuum level automatically
 **WARNING** : This feature is experimental and still requires some testing
 **PLEASE ** : If you see it fail, please report.
 Vacuum level determined:
 set_vacuum_level    52.6000000000000

------------------------------------------------------------
          Preparing all fixed parts of the calculation.
------------------------------------------------------------
  Determining machine precision:
    2.225073858507201E-308
  Setting up grids for atomic and cluster calculations.

  Creating wave function, potential, and density for free atoms.

  Species: S

  List of occupied orbitals and eigenvalues:
    n    l              occ      energy [Ha]    energy [eV]
    1    0           2.0000       -88.680731     -2413.1255
    2    0           2.0000        -7.781719      -211.7513
    3    0           2.0000        -0.633662       -17.2428
    2    1           6.0000        -5.751976      -156.5192
    3    1           4.0000        -0.257086        -6.9957


  Species: Mo

  List of occupied orbitals and eigenvalues:
    n    l              occ      energy [Ha]    energy [eV]
    1    0           2.0000      -745.344654    -20281.8600
    2    0           2.0000      -103.288246     -2810.6162
    3    0           2.0000       -17.516687      -476.6533
    4    0           2.0000        -2.358559       -64.1796
    5    0           1.0000        -0.145159        -3.9500
    2    1           6.0000       -92.308627     -2511.8455
    3    1           6.0000       -13.936005      -379.2180
    4    1           6.0000        -1.408138       -38.3174
    3    2          10.0000        -8.119011      -220.9295
    4    2           5.0000        -0.132984        -3.6187


  Species: W

  List of occupied orbitals and eigenvalues:
    n    l              occ      energy [Ha]    energy [eV]
    1    0           2.0000     -2764.899999    -75236.7570
    2    0           2.0000      -447.822848    -12185.8797
    3    0           2.0000      -101.923634     -2773.4832
    4    0           2.0000       -20.945301      -569.9506
    5    0           2.0000        -2.899582       -78.9016
    6    0           2.0000        -0.207066        -5.6345
    2    1           6.0000      -391.021390    -10640.2334
    3    1           6.0000       -85.417793     -2324.3364
    4    1           6.0000       -15.562838      -423.4864
    5    1           6.0000        -1.582233       -43.0547
    3    2          10.0000       -66.517936     -1810.0451
    4    2          10.0000        -8.758436      -238.3292
    5    2           4.0000        -0.161873        -4.4048
    4    3          14.0000        -1.221948       -33.2509


  Species: Se

  List of occupied orbitals and eigenvalues:
    n    l              occ      energy [Ha]    energy [eV]
    1    0           2.0000      -466.337810    -12689.6975
    2    0           2.0000       -59.202598     -1610.9847
    3    0           2.0000        -7.847116      -213.5309
    4    0           2.0000        -0.634372       -17.2621
    2    1           6.0000       -52.061107     -1416.6548
    3    1           6.0000        -5.620941      -152.9536
    4    1           4.0000        -0.238469        -6.4891
    3    2          10.0000        -1.951949       -53.1152


  Adding cutoff potential to free-atom effective potential.
  Creating fixed part of basis set: Ionic, confined, hydrogenic.
 
  S                    ion:

  List of free ionic orbitals and eigenvalues:
    n    l      energy [Ha]    energy [eV]
    1    0       -89.703778     -2440.9640
    2    0        -8.775428      -238.7916
    3    0        -1.470343       -40.0101
    2    1        -6.747660      -183.6132
    3    1        -1.048627       -28.5346


  List of ionic basis orbitals and eigenvalues:
    n    l      energy [Ha]    energy [eV]    outer radius [A]
    3    2        -0.495605       -13.4861       5.386362
    3    0        -1.470336       -40.0099       3.967934

 
  S                    hydrogenic:
 
  List of hydrogenic basis orbitals: 
    n    l      effective z      eigenvalue [eV]  inner max. [A]     outer max. [A]     outer radius [A]   
    2    1         1.800000       -11.0118           1.168531           1.168531           5.452614
    4    3         7.000000       -41.6672           1.212182           1.212182           5.066981
    4    2         6.200000       -32.6848           0.582121           1.814567           5.386362
    5    4        10.800000       -63.4785           1.227092           1.227092           4.766538
 
 
  Mo                   ion:

  List of free ionic orbitals and eigenvalues:
    n    l      energy [Ha]    energy [eV]
    1    0      -746.048685    -20301.0176
    2    0      -103.980912     -2829.4646
    3    0       -18.206601      -495.4268
    4    0        -3.040545       -82.7374
    2    1       -93.001013     -2530.6863
    3    1       -14.625827      -397.9890
    4    1        -2.084855       -56.7318
    3    2        -8.808854      -239.7011
    4    2        -0.765435       -20.8285


  List of ionic basis orbitals and eigenvalues:
    n    l      energy [Ha]    energy [eV]    outer radius [A]
    5    1        -0.465587       -12.6693       5.456393
    5    0        -0.650331       -17.6964       5.390095

 
  Mo                   hydrogenic:
 
  List of hydrogenic basis orbitals: 
    n    l      effective z      eigenvalue [eV]  inner max. [A]     outer max. [A]     outer radius [A]   
    4    3         8.400000       -60.0010           1.009788           1.009788           4.487018
    3    2         2.800000       -11.8048           1.687401           1.687401           5.456393
    5    4        12.000000       -78.3687           1.100005           1.100005           4.432498
 
 
  W                    ion:

  List of free ionic orbitals and eigenvalues:
    n    l      energy [Ha]    energy [eV]
    1    0     -2765.664016    -75257.5469
    2    0      -448.543169    -12205.4806
    3    0      -102.635476     -2792.8534
    4    0       -21.655379      -589.2728
    5    0        -3.604872       -98.0936
    6    0        -0.752243       -20.4696
    2    1      -391.740682    -10659.8063
    3    1       -86.129333     -2343.6984
    4    1       -16.272893      -442.8080
    5    1        -2.280103       -62.0448
    3    2       -67.229405     -1829.4052
    4    2        -9.468448      -257.6496
    5    2        -0.806537       -21.9470
    4    3        -1.931058       -52.5468


  List of ionic basis orbitals and eigenvalues:
    n    l      energy [Ha]    energy [eV]    outer radius [A]
    6    1        -0.508246       -13.8301       5.434360
    6    0        -0.752227       -20.4691       5.368330

 
  W                    hydrogenic:
 
  List of hydrogenic basis orbitals: 
    n    l      effective z      eigenvalue [eV]  inner max. [A]     outer max. [A]     outer radius [A]   
    4    3         7.800000       -51.7355           1.082252           1.082252           4.692859
    4    2         5.800000       -28.5979           0.616741           1.946131           5.434360
    5    4        12.400000       -83.6803           1.069102           1.069102           4.307971
 
 
  Se                   ion:

  List of free ionic orbitals and eigenvalues:
    n    l      energy [Ha]    energy [eV]
    1    0      -467.261007    -12714.8189
    2    0       -60.104893     -1635.5374
    3    0        -8.743714      -237.9286
    4    0        -1.414053       -38.4783
    2    1       -52.964156     -1441.2280
    3    1        -6.516916      -177.3343
    4    1        -0.961869       -26.1738
    3    2        -2.844511       -77.4031


  List of ionic basis orbitals and eigenvalues:
    n    l      energy [Ha]    energy [eV]    outer radius [A]
    4    0        -1.414046       -38.4782       4.083166

 
  Se                   hydrogenic:
 
  List of hydrogenic basis orbitals: 
    n    l      effective z      eigenvalue [eV]  inner max. [A]     outer max. [A]     outer radius [A]   
    3    2         4.300000       -27.9518           1.103845           1.103845           5.278265
    2    1         1.600000        -8.6828           1.326010           1.326010           5.475439
    4    3         7.200000       -44.0822           1.173422           1.173422           4.965294
 
  Creating atomic-like basis functions for current effective potential.

  Species S                   :

  List of atomic basis orbitals and eigenvalues:
    n    l      energy [Ha]    energy [eV]    outer radius [A]
    1    0       -88.680731     -2413.1255       0.682391
    2    0        -7.781719      -211.7513       2.289014
    3    0        -0.633662       -17.2428       5.256262
    2    1        -5.751976      -156.5192       2.555240
    3    1        -0.257086        -6.9957       5.386362


  Species Mo                  :

  List of atomic basis orbitals and eigenvalues:
    n    l      energy [Ha]    energy [eV]    outer radius [A]
    1    0      -745.344654    -20281.8600       0.247552
    2    0      -103.288246     -2810.6162       0.682864
    3    0       -17.516687      -476.6533       1.626637
    4    0        -2.358559       -64.1796       4.220963
    5    0        -0.145159        -3.9500       5.456393
    2    1       -92.308627     -2511.8455       0.699766
    3    1       -13.936005      -379.2180       1.793761
    4    1        -1.408138       -38.3174       4.828511
    3    2        -8.119011      -220.9295       2.181285
    4    2        -0.132984        -3.6187       5.390095


  Species W                   :

  List of atomic basis orbitals and eigenvalues:
    n    l      energy [Ha]    energy [eV]    outer radius [A]
    1    0     -2764.899999    -75236.7570       0.130566
    2    0      -447.822848    -12185.8797       0.342973
    3    0      -101.923634     -2773.4832       0.722975
    4    0       -20.945301      -569.9506       1.542753
    5    0        -2.899582       -78.9016       3.859132
    6    0        -0.207066        -5.6345       5.434360
    2    1      -391.021390    -10640.2334       0.355785
    3    1       -85.417793     -2324.3364       0.768545
    4    1       -15.562838      -423.4864       1.722184
    5    1        -1.582233       -43.0547       4.750581
    3    2       -66.517936     -1810.0451       0.827037
    4    2        -8.758436      -238.3292       2.172477
    5    2        -0.161873        -4.4048       5.368330
    4    3        -1.221948       -33.2509       4.579510


  Species Se                  :

  List of atomic basis orbitals and eigenvalues:
    n    l      energy [Ha]    energy [eV]    outer radius [A]
    1    0      -466.337810    -12689.6975       0.309561
    2    0       -59.202598     -1610.9847       0.885812
    3    0        -7.847116      -213.5309       2.355489
    4    0        -0.634372       -17.2621       5.214131
    2    1       -52.061107     -1416.6548       0.907737
    3    1        -5.620941      -152.9536       2.694529
    4    1        -0.238469        -6.4891       5.408909
    3    2        -1.951949       -53.1152       4.083166

  Assembling full basis from fixed parts.
  | Species S :   atomic orbital   1 s accepted.
  | Species S :   atomic orbital   2 s accepted.
  | Species S :    ionic orbital   3 s accepted.
  | Species S :   atomic orbital   3 s accepted.
  | Species S :   atomic orbital   2 p accepted.
  | Species S :   atomic orbital   3 p accepted.
  | Species S :    hydro orbital   2 p accepted.
  | Species S :    ionic orbital   3 d accepted.
  | Species S :    hydro orbital   4 d accepted.
  | Species S :    hydro orbital   4 f accepted.
  | Species S :    hydro orbital   5 g accepted.
  | Species Mo :   atomic orbital   1 s accepted.
  | Species Mo :   atomic orbital   2 s accepted.
  | Species Mo :   atomic orbital   3 s accepted.
  | Species Mo :   atomic orbital   4 s accepted.
  | Species Mo :    ionic orbital   5 s accepted.
  | Species Mo :   atomic orbital   5 s accepted.
  | Species Mo :   atomic orbital   2 p accepted.
  | Species Mo :   atomic orbital   3 p accepted.
  | Species Mo :   atomic orbital   4 p accepted.
  | Species Mo :    ionic orbital   5 p accepted.
  | Species Mo :   atomic orbital   3 d accepted.
  | Species Mo :   atomic orbital   4 d accepted.
  | Species Mo :    hydro orbital   3 d accepted.
  | Species Mo :    hydro orbital   4 f accepted.
  | Species Mo :    hydro orbital   5 g accepted.
  | Species W :   atomic orbital   1 s accepted.
  | Species W :   atomic orbital   2 s accepted.
  | Species W :   atomic orbital   3 s accepted.
  | Species W :   atomic orbital   4 s accepted.
  | Species W :   atomic orbital   5 s accepted.
  | Species W :    ionic orbital   6 s accepted.
  | Species W :   atomic orbital   6 s accepted.
  | Species W :   atomic orbital   2 p accepted.
  | Species W :   atomic orbital   3 p accepted.
  | Species W :   atomic orbital   4 p accepted.
  | Species W :   atomic orbital   5 p accepted.
  | Species W :    ionic orbital   6 p accepted.
  | Species W :   atomic orbital   3 d accepted.
  | Species W :   atomic orbital   4 d accepted.
  | Species W :   atomic orbital   5 d accepted.
  | Species W :    hydro orbital   4 d accepted.
  | Species W :   atomic orbital   4 f accepted.
  | Species W :    hydro orbital   4 f accepted.
  | Species W :    hydro orbital   5 g accepted.
  | Species Se :   atomic orbital   1 s accepted.
  | Species Se :   atomic orbital   2 s accepted.
  | Species Se :   atomic orbital   3 s accepted.
  | Species Se :    ionic orbital   4 s accepted.
  | Species Se :   atomic orbital   4 s accepted.
  | Species Se :   atomic orbital   2 p accepted.
  | Species Se :   atomic orbital   3 p accepted.
  | Species Se :   atomic orbital   4 p accepted.
  | Species Se :    hydro orbital   2 p accepted.
  | Species Se :   atomic orbital   3 d accepted.
  | Species Se :    hydro orbital   3 d accepted.
  | Species Se :    hydro orbital   4 f accepted.
 
  Basis size parameters after reduction:
  | Total number of radial functions:       57
  | Total number of basis functions :      143
 
  Per-task memory consumption for arrays in subroutine allocate_ext:
  |          21.647112MB.
  Testing on-site integration grid accuracy.
  |  Species  Function  <phi|h_atom|phi> (log., in eV)  <phi|h_atom|phi> (rad., in eV)
           1        1              -2413.1254568977              -2413.1254096663
           1        2               -211.7513411281               -211.7513404762
           1        3                -16.9725280787                -16.9725279206
           1        4                  7.6024436204                  7.6024549059
           1        5               -156.5192206929               -156.5192205451
           1        6                 -6.9959757887                 -6.9959777655
           1        7                  6.8896462808                  6.8895564741
           1        8                  6.0214250550                  6.0214220200
           1        9                 19.6206468977                 19.6206494558
           1       10                 24.7008710786                 24.7008710738
           1       11                 47.5292252001                 47.5292260486
           2       12             -20281.8599610543             -20281.8584300616
           2       13              -2810.6161812280              -2810.6161551921
           2       14               -476.6533163555               -476.6533136395
           2       15                -64.1796433667                -64.1796426456
           2       16                 -3.3691762756                 -3.3691802887
           2       17                  4.4704608512                  4.4699102345
           2       18              -2511.8455406047              -2511.8455385741
           2       19               -379.2179896350               -379.2179882338
           2       20                -38.3173891619                -38.3173886619
           2       21                  0.2493245095                  0.2492931069
           2       22               -220.9295301098               -220.9295297081
           2       23                 -3.6195697699                 -3.6195754704
           2       24                  7.1428000922                  7.1426882355
           2       25                 23.3975871087                 23.3975871819
           2       26                 50.2449608881                 50.2449608586
           3       27             -75236.7569897398             -75236.7398021816
           3       28             -12185.8796968880             -12185.8793671389
           3       29              -2773.4831911435              -2773.4831624928
           3       30               -569.9506420417               -569.9506363235
           3       31                -78.9016401752                -78.9016385968
           3       32                 -5.1691854984                 -5.1691848358
           3       33                  4.5636857939                  4.5638143912
           3       34             -10640.2333851158             -10640.2333803363
           3       35              -2324.3364165327              -2324.3364072919
           3       36               -423.4863614587               -423.4863574859
           3       37                -43.0547390741                -43.0547381500
           3       38                 -0.2794590886                 -0.2794514857
           3       39              -1810.0451240061              -1810.0451202456
           3       40               -238.3291788477               -238.3291766726
           3       41                 -4.4054312547                 -4.4054293963
           3       42                  8.2928303329                  8.2928369211
           3       43                -33.2508975442                -33.2508971531
           3       44                 21.3563540731                 21.3563541107
           3       45                 49.8060668072                 49.8060668107
           4       46             -12689.6974611609             -12689.6967666984
           4       47              -1610.9846578580              -1610.9846472470
           4       48               -213.5308789869               -213.5308777267
           4       49                -17.0464428502                -17.0464426496
           4       50                  6.7356859379                  6.7356842047
           4       51              -1416.6548010133              -1416.6548002108
           4       52               -152.9535734377               -152.9535727493
           4       53                 -6.4896265677                 -6.4896303794
           4       54                  5.2703037283                  5.2701679583
           4       55                -53.1152220964                -53.1152219035
           4       56                  7.6186674138                  7.6186665630
           4       57                 23.1072799052                 23.1072803137

  Preparing densities etc. for the partition functions (integrals / Hartree potential).
 Frequency grid relative error: 0.12418110983958286E-009                        
   
 Will use parallel mode: atoms     

  Preparations completed.
  max(cpu_time)          :      1.143 s.
  Wall clock time (cpu1) :      1.189 s.
------------------------------------------------------------

------------------------------------------------------------
          Begin self-consistency loop: Initialization.

          Date     :  20210720, Time     :  160937.872
------------------------------------------------------------

  Initializing index lists of integration centers etc. from given atomic structure:
  Mapping all atomic coordinates to central unit cell.

  Initializing the k-points
  Using symmetry for reducing the k-points
  | k-points reduced from:        4 to        4
  | Number of k-points                             :         4
  The eigenvectors in the calculations are REAL.
  | Number of basis functions in the Hamiltonian integrals :      2226
  | Number of basis functions in a single unit cell        :       143
  | Number of centers in hartree potential         :       375
  | Number of centers in hartree multipole         :       189
  | Number of centers in electron density summation:       153
  | Number of centers in basis integrals           :       171
  | Number of centers in integrals                 :        72
  | Number of centers in hamiltonian               :       153
  | Consuming          3 KiB for k_phase.
  | Number of super-cells (origin) [n_cells]                     :         867
  | Number of super-cells (after PM_index) [n_cells]             :          60
  | Number of super-cells in hamiltonian [n_cells_in_hamiltonian]:          60
  | Size of matrix packed + index [n_hamiltonian_matrix_size] :      290904

  Initializing relaxation algorithms.
  Finished initialization of distributed Hessian storage.
  | Global dimension:        18
  | BLACS block size:         1
  | Number of workers:       18

  | Estimated reciprocal-space cutoff momentum G_max:         1.90186217 bohr^-1 .
  | Reciprocal lattice points for long-range Hartree potential:     648
  Using simple linear distribution as default method for k-point parallelism.
  * Using 160 tasks for Scalapack Eigenvalue solver.
  Detailed listing of tasks and assigned k-points:
   Task     0 k-point     1 on co2500
   Task     1 k-point     1 on co2500
   Task     2 k-point     1 on co2500
   Task     3 k-point     1 on co2500
   Task     4 k-point     1 on co2500
   Task     5 k-point     1 on co2500
   Task     6 k-point     1 on co2500
   Task     7 k-point     1 on co2500
   Task     8 k-point     1 on co2500
   Task     9 k-point     1 on co2500
   Task    10 k-point     1 on co2500
   Task    11 k-point     1 on co2500
   Task    12 k-point     1 on co2500
   Task    13 k-point     1 on co2500
   Task    14 k-point     1 on co2500
   Task    15 k-point     1 on co2500
   Task    16 k-point     1 on co2500
   Task    17 k-point     1 on co2500
[...]
     31       1.00000                   -1811.276909       -1785.091723             0.010229
     32       1.00000                   -1811.276909       -1785.091723             0.000000
     33       1.00000                    -571.166499        -571.166499          1213.925223
     34       1.00000                    -571.166499        -571.166499             0.000000
     35       1.00000                    -424.732518        -469.060057           102.106443
     36       1.00000                    -424.732518        -469.060057             0.000000
     37       1.00000                    -424.729966        -395.375922            73.684135
     38       1.00000                    -424.729966        -395.375922             0.000000
     39       1.00000                    -424.634731        -395.315638             0.060284
     40       1.00000                    -424.634731        -395.315638             0.000000
     41       1.00000                    -239.591813        -247.145534           148.170104
     42       1.00000                    -239.591813        -247.145534             0.000000
     43       1.00000                    -239.591495        -247.076878             0.068656
     44       1.00000                    -239.591495        -247.076878             0.000000
     45       1.00000                    -239.517677        -234.376672            12.700206
     46       1.00000                    -239.517677        -234.376672             0.000000
     47       1.00000                    -239.515691        -234.318625             0.058047
     48       1.00000                    -239.515691        -234.318625             0.000000
     49       1.00000                    -239.485408        -234.284375             0.034250
     50       1.00000                    -239.485408        -234.284375             0.000000
     51       1.00000                    -211.455832        -211.455832            22.828543
     52       1.00000                    -211.455832        -211.455832             0.000000
     53       1.00000                    -211.455820        -211.455820             0.000012
     54       1.00000                    -211.455820        -211.455820             0.000000
     55       1.00000                    -156.228956        -157.028650            54.427171
     56       1.00000                    -156.228956        -157.028650             0.000000
     57       1.00000                    -156.228943        -157.028624             0.000026
     58       1.00000                    -156.228943        -157.028624             0.000000
     59       1.00000                    -156.228447        -155.816445             1.212179
     60       1.00000                    -156.228447        -155.816445             0.000000
     61       1.00000                    -156.228435        -155.816429             0.000016
     62       1.00000                    -156.228435        -155.816429             0.000000
     63       1.00000                    -156.149730        -155.762672             0.053757
     64       1.00000                    -156.149730        -155.762672             0.000000
     65       1.00000                    -156.149715        -155.762642             0.000029
     66       1.00000                    -156.149715        -155.762642             0.000000
     67       1.00000                     -80.124692         -80.124692            75.637951
     68       1.00000                     -80.124692         -80.124692             0.000000
     69       1.00000                     -44.289078         -50.018899            30.105793
     70       1.00000                     -44.289078         -50.018899             0.000000
     71       1.00000                     -44.281353         -39.799301            10.219598
     72       1.00000                     -44.281353         -39.799301             0.000000
     73       1.00000                     -44.224464         -39.736653             0.062648
     74       1.00000                     -44.224464         -39.736653             0.000000
     75       1.00000                     -34.546395         -35.791537             3.945116
     76       1.00000                     -34.546395         -35.791537             0.000000
     77       1.00000                     -34.528104         -35.716817             0.074719
     78       1.00000                     -34.528104         -35.716817             0.000000
     79       1.00000                     -34.468589         -35.671268             0.045549
     80       1.00000                     -34.468589         -35.671268             0.000000
     81       1.00000                     -34.468284         -33.589852             2.081416
     82       1.00000                     -34.468284         -33.589852             0.000000
     83       1.00000                     -34.413863         -33.530315             0.059537
     84       1.00000                     -34.413863         -33.530315             0.000000
     85       1.00000                     -34.411652         -33.480401             0.049914
     86       1.00000                     -34.411652         -33.480401             0.000000
     87       1.00000                     -34.399614         -33.456913             0.023487
     88       1.00000                     -34.399614         -33.456913             0.000000
     89       1.00000                     -20.796867         -20.796840            12.660073
     90       1.00000                     -20.796867         -20.796840             0.000000
     91       1.00000                     -19.221627         -19.145266             1.651574
     92       1.00000                     -19.221627         -19.145266             0.000000
     93       1.00000                     -12.466805         -12.467655             6.677611
     94       1.00000                     -12.466805         -12.467655             0.000000
     95       1.00000                      -8.883558          -9.012984             3.454671
     96       1.00000                      -8.883558          -9.012984             0.000000
     97       1.00000                      -8.834117          -8.717825             0.295159
     98       1.00000                      -8.834117          -8.717825             0.000000
     99       1.00000                      -8.223578          -8.172323             0.545502
    100       1.00000                      -8.223578          -8.172323             0.000000
    101       1.00000                      -7.541750          -7.651785             0.520538
    102       1.00000                      -7.541750          -7.651785             0.000000
    103       1.00000                      -7.521940          -7.424140             0.227645
    104       1.00000                      -7.521940          -7.424140             0.000000
    105       1.00000                      -6.231138          -6.201532             1.222608
    106       1.00000                      -6.231138          -6.201532             0.000000
    107       0.00000                      -3.173768          -3.266623             2.934909
    108       0.00000                      -3.173768          -3.266623             0.000000
    109       0.00000                      -3.144262          -3.237150             0.029473
    110       0.00000                      -3.144262          -3.237150             0.000000
    111       0.00000                      -3.139871          -3.030652             0.206498
    112       0.00000                      -3.139871          -3.030652             0.000000
    113       0.00000                      -3.109287          -2.951824             0.078828
    114       0.00000                      -3.109287          -2.951824             0.000000
    115       0.00000                      -0.683213          -0.681125             2.270699
    116       0.00000                      -0.683213          -0.681125             0.000000
    117       0.00000                       2.098503           2.102770             2.783895
    118       0.00000                       2.098503           2.102770             0.000000
    119       0.00000                       2.340178           2.341426             0.238656
    120       0.00000                       2.340178           2.341426             0.000000
    121       0.00000                       2.959578           2.997875             0.656449
    122       0.00000                       2.959578           2.997875             0.000000
    123       0.00000                       4.441951           4.434779             1.436904
    124       0.00000                       4.441951           4.434779             0.000000
    125       0.00000                       4.512133           4.717050             0.282271
    126       0.00000                       4.512133           4.717050             0.000000
    127       0.00000                       6.588611           6.568339             1.851289
    128       0.00000                       6.588611           6.568339             0.000000
    129       0.00000                       6.652631           6.658158             0.089818
    130       0.00000                       6.652631           6.658158             0.000000
    131       0.00000                       6.846147           6.873457             0.215299
    132       0.00000                       6.846147           6.873457             0.000000
    133       0.00000                      10.027125          10.017376             3.143919
    134       0.00000                      10.027125          10.017376             0.000000
    135       0.00000                      10.072967          10.097371             0.079996
    136       0.00000                      10.072967          10.097371             0.000000

  What follows are estimated values for band gap, HOMO, LUMO, etc.
  | They are estimated on a discrete k-point grid and not necessarily exact.
  | For converged numbers, create a DOS and/or band structure plot on a denser k-grid.

  Highest occupied state (VBM) at     -6.20153187 eV (relative to internal zero)
  | Occupation number:      1.00000000
  | K-point:       1 at    0.000000    0.000000    0.000000 (in units of recip. lattice)

  Lowest unoccupied state (CBM) at    -3.36348175 eV (relative to internal zero)
  | Occupation number:      0.00000000
  | K-point:       4 at    0.500000    0.500000    0.000000 (in units of recip. lattice)

  ESTIMATED overall HOMO-LUMO gap:      2.83805012 eV between HOMO at k-point 1 and LUMO at k-point 4
  | This appears to be an indirect band gap.
  | Smallest direct gap :      2.93490871 eV for k_point 1 at    0.000000    0.000000    0.000000 (in units of recip. lattice)
  The gap value is above 0.2 eV. Unless you are using a very sparse k-point grid,
  this system is most likely an insulator or a semiconductor.

  Spin-orbit coupling                                     :  max(cpu_time)    wall_clock(cpu1)
  | Computing matrix elements for SOC operator            :          0.799               0.800
  | Constructing second-variational Hamiltonian           :          0.009               0.013
  | Diagonalizing second-variational Hamiltonian          :          0.027               0.054
  | Syncing data and calculating occupations              :          0.021               0.022
  | Writing out data, calculating band gaps, etc.         :          0.002               0.006
  | Total SOC time                                        :          0.874               0.909

  Partial memory accounting:
  | Current value for overall tracked memory usage:
  |   Minimum:        3.079 MB (on task   9)
  |   Maximum:        3.102 MB (on task   0)
  |   Average:        3.087 MB
  | Peak value for overall tracked memory usage:
  |   Minimum:       49.948 MB (on task  55 after allocating d_wave)
  |   Maximum:       55.501 MB (on task  41 after allocating d_wave)
  |   Average:       52.942 MB
  | Largest tracked array allocation so far:
  |   Minimum:       10.895 MB (density_matrix_con on task  18)
  |   Maximum:       12.834 MB (density_matrix_con on task   3)
  |   Average:       12.180 MB
  Note:  These values currently only include a subset of arrays which are explicitly tracked.
  The "true" memory usage will be greater.
 ------------------------------------------------------------

------------------------------------------------------------------------------
  Final output of selected total energy values:

  The following output summarizes some interesting total energy values
  at the end of a run (AFTER all relaxation, molecular dynamics, etc.).

  | Total energy of the DFT / Hartree-Fock s.c.f. calculation      :        -474458.138971034 eV
  | Final zero-broadening corrected energy (caution - metals only) :        -474458.138971034 eV
  | Total energy after non-SC SOC correction (DO NOT USE)          :        -474459.143151161 eV
  | For reference only, the value of 1 Hartree used in FHI-aims is :             27.211384500 eV
  | For reference only, the overall average (free atom contribution
  | + realspace contribution) of the electrostatic potential after
  | s.c.f. convergence is                                          :             -1.235926049 eV

  Before relying on these values, please be sure to understand exactly which
  total energy value is referred to by a given number. Different objects may
  all carry the same name 'total energy'. Definitions:

  Total energy of the DFT / Hartree-Fock s.c.f. calculation:
  | Note that this energy does not include ANY quantities calculated after the
  | s.c.f. cycle, in particular not ANY RPA, MP2, etc. many-body perturbation terms.

  Final zero-broadening corrected energy:
  | For metallic systems only, a broadening of the occupation numbers at the Fermi
  | level can be extrapolated back to zero broadening by an electron-gas inspired
  | formula. For all systems that are not real metals, this value can be
  | meaningless and should be avoided.

------------------------------------------------------------------------------
  Methods described in the following list of references were used in this FHI-aims run.
  If you publish the results, please make sure to cite these reference if they apply.
  FHI-aims is an academic code, and for our developers (often, Ph.D. students
  and postdocs), scientific credit in the community is essential.
  Thank you for helping us!

  For any use of FHI-aims, please cite:

    Volker Blum, Ralf Gehrke, Felix Hanke, Paula Havu, Ville Havu,
    Xinguo Ren, Karsten Reuter, and Matthias Scheffler
    'Ab initio molecular simulations with numeric atom-centered orbitals'
    Computer Physics Communications 180, 2175-2196 (2009)
    http://dx.doi.org/10.1016/j.cpc.2009.06.022


  For the analytical stress tensor used in your run, please cite:

    Franz Knuth, Christian Carbogno, Viktor Atalla, Volker Blum, Matthias Scheffler
    'All-electron formalism for total energy strain derivatives and
    stress tensor components for numeric atom-centered orbitals'
    Computer Physics Communications 190, 33-50 (2015).
    http://dx.doi.org/10.1016/j.cpc.2015.01.003


  The provided symmetry information was generated with SPGlib:

    Atsushi Togo, Yusuke Seto, Dimitar Pashov
    SPGlib 1.7.3 obtained from http://spglib.sourceforge.net
    Copyright (C) 2008 Atsushi Togo


  For second-variational spin-orbit coupling used in your run, please cite:

    William P. Huhn and Volker Blum,
    'One-hundred-three compound band-structure benchmark of post-self-consistent'
    'spin-orbit coupling treatments in density functional theory'
    Phys. Rev. Materials 1, 033803 (2017).


  The ELSI infrastructure was used in your run to solve the Kohn-Sham electronic structure.
  Please check out http://elsi-interchange.org to learn more.
  If scalability is important for your project, please acknowledge ELSI by citing:

    V. W-z. Yu, F. Corsetti, A. Garcia, W. P. Huhn, M. Jacquelin, W. Jia,
    B. Lange, L. Lin, J. Lu, W. Mi, A. Seifitokaldani, A. Vazquez-Mayagoitia,
    C. Yang, H. Yang, and V. Blum
    'ELSI: A unified software interface for Kohn-Sham electronic structure solvers'
    Computer Physics Communications 222, 267-285 (2018).
    http://dx.doi.org/10.1016/j.cpc.2017.09.007


  For the real-space grid partitioning and parallelization used in this calculation, please cite:

    Ville Havu, Volker Blum, Paula Havu, and Matthias Scheffler,
    'Efficient O(N) integration for all-electron electronic structure calculation'
    'using numerically tabulated basis functions'
    Journal of Computational Physics 228, 8367-8379 (2009).
    http://dx.doi.org/10.1016/j.jcp.2009.08.008

  Of course, there are many other important community references, e.g., those cited in the
  above references. Our list is limited to references that describe implementations in the
  FHI-aims code. The reason is purely practical (length of this list) - please credit others as well.

------------------------------------------------------------
          Leaving FHI-aims.
          Date     :  20210720, Time     :  161510.512

          Computational steps:
          | Number of self-consistency cycles          :          282
          | Number of SCF (re)initializations          :           27
          | Number of relaxation steps                 :           26

          Detailed time accounting                     :  max(cpu_time)    wall_clock(cpu1)
          | Total time                                 :      337.316 s         338.370 s
          | Preparation time                           :        1.143 s           1.189 s
          | Boundary condition initalization           :        7.524 s           7.449 s
          | Grid partitioning                          :        1.252 s           1.258 s
          | Preloading free-atom quantities on grid    :        0.743 s           0.761 s
          | Free-atom superposition energy             :        0.068 s           0.073 s
          | Total time for integrations                :       35.559 s          35.605 s
          | Total time for solution of K.-S. equations :        1.371 s           1.450 s
          | Total time for EV reorthonormalization     :        0.081 s           0.072 s
          | Total time for density & force components  :      244.720 s         244.862 s
          | Total time for mixing & preconditioning    :        2.192 s           2.164 s
          | Total time for Hartree multipole update    :        0.557 s           0.552 s
          | Total time for Hartree multipole sum       :       26.937 s          26.982 s
          | Total time for total energy evaluation     :        0.113 s           0.063 s
          | Total time for scaled ZORA corrections     :        0.000 s           0.000 s
          | Total time for vdW correction              :        8.026 s           8.227 s
          | Total time for perturbative SOC            :        0.874 s           0.909 s

          Partial memory accounting:
          | Residual value for overall tracked memory usage across tasks:     0.000000 MB (should be 0.000000 MB)
          | Peak values for overall tracked memory usage:
          |   Minimum:       49.948 MB (on task  55 after allocating d_wave)
          |   Maximum:       55.501 MB (on task  41 after allocating d_wave)
          |   Average:       52.942 MB
          | Largest tracked array allocation:
          |   Minimum:       10.895 MB (density_matrix_con on task  18)
          |   Maximum:       12.834 MB (density_matrix_con on task   3)
          |   Average:       12.180 MB
          Note:  These values currently only include a subset of arrays which are explicitly tracked.
          The "true" memory usage will be greater.

          Have a nice day.
------------------------------------------------------------
