------------------------------------------------------------
          Invoking FHI-aims ...

          When using FHI-aims, please cite the following reference:

            Volker Blum, Ralf Gehrke, Felix Hanke, Paula Havu,
            Ville Havu, Xinguo Ren, Karsten Reuter, and Matthias Scheffler,
            'Ab Initio Molecular Simulations with Numeric Atom-Centered Orbitals',
            Computer Physics Communications 180, 2175-2196 (2009)

          In addition, many other developments in FHI-aims are likely important for
          your particular application. A partial list of references is given at the end of
          this file. Thank you for giving credit to the authors of these developments.

          For any questions about FHI-aims, please visit our slack channel at

            https://fhi-aims.slack.com

          and our main development and support site at

            https://aims-git.rz-berlin.mpg.de .

          The latter site, in particular, has a wiki to collect information, as well
          as an issue tracker to log discussions, suggest improvements, and report issues
          or bugs. https://aims-git.rz-berlin.mpg.de is also the main development site
          of the project and all new and updated code versions can be obtained there.
          Please send an email to aims-coordinators@fhi-berlin.mpg.de and we will add
          you to these sites. They are for you and everyone is welcome there.

------------------------------------------------------------



  Date     :  20220107, Time     :  224335.158
  Time zero on CPU 1             :   0.264318000000000E+00  s.
  Internal wall clock time zero  :           410827415.158  s.

  FHI-aims created a unique identifier for this run for later identification
  aims_uuid : EFA4FB7C-F14A-4DFE-A2CD-9C96B8EDB36C

  Build configuration of the current instance of FHI-aims
  -------------------------------------------------------
  FHI-aims version      : 210513
  Commit number         : 1a2d0b161
  CMake host system     : Linux-4.12.14-122.63-default
  CMake version         : 3.5.2
  Fortran compiler      : /mpcdf/soft/SLE_12/packages/x86_64/intel_parallel_studio/2020.1/compilers_and_libraries_2020.1.217/linux/mpi/intel64/bin/mpiifort (Intel) version 19.1.0.20200306
  Fortran compiler flags: -O3 -ip -fp-model precise
  C compiler            : /mpcdf/soft/SLE_12/packages/x86_64/intel/19.1.1/bin/icc (Intel) version 19.1.0.20200306
  C compiler flags      : -O3 -ip -fp-model precise -std=gnu99
  C++ compiler          : /mpcdf/soft/SLE_12/packages/x86_64/intel/19.1.1/bin/icpc (Intel) version 19.1.0.20200306
  C++ compiler flags    : -O3 -ip -fp-model precise -std=gnu99
  Using MPI
  Using ScaLAPACK
  Using LibXC
  Using i-PI
  Using RLSY
  Linking against: /mpcdf/soft/SLE_12/packages/x86_64/intel_parallel_studio/2020.1/mkl/lib/intel64/libmkl_intel_lp64.so
                   /mpcdf/soft/SLE_12/packages/x86_64/intel_parallel_studio/2020.1/mkl/lib/intel64/libmkl_sequential.so
                   /mpcdf/soft/SLE_12/packages/x86_64/intel_parallel_studio/2020.1/mkl/lib/intel64/libmkl_core.so
                   /mpcdf/soft/SLE_12/packages/x86_64/intel_parallel_studio/2020.1/mkl/lib/intel64/libmkl_blacs_intelmpi_lp64.so
                   /mpcdf/soft/SLE_12/packages/x86_64/intel_parallel_studio/2020.1/mkl/lib/intel64/libmkl_scalapack_lp64.so

  Using      160 parallel tasks.
  Task        0 on host co1589 reporting.
  Task        1 on host co1589 reporting.
  Task        2 on host co1589 reporting.
  Task        3 on host co1589 reporting.
  Task        4 on host co1589 reporting.
  Task        5 on host co1589 reporting.
  Task        6 on host co1589 reporting.
  Task        7 on host co1589 reporting.
  Task        8 on host co1589 reporting.
  Task        9 on host co1589 reporting.
  Task       10 on host co1589 reporting.
  Task       11 on host co1589 reporting.
  Task       12 on host co1589 reporting.
  Task       13 on host co1589 reporting.
  Task       14 on host co1589 reporting.
  Task       15 on host co1589 reporting.
  Task       16 on host co1589 reporting.
  Task       17 on host co1589 reporting.
  Task       18 on host co1589 reporting.
  Task       19 on host co1589 reporting.
  Task       20 on host co1589 reporting.
  Task       21 on host co1589 reporting.
  Task       22 on host co1589 reporting.
  Task       23 on host co1589 reporting.
  Task       24 on host co1589 reporting.
  Task       25 on host co1589 reporting.
  Task       26 on host co1589 reporting.
  Task       27 on host co1589 reporting.
  Task       28 on host co1589 reporting.
  Task       29 on host co1589 reporting.
  Task       30 on host co1589 reporting.
  Task       31 on host co1589 reporting.
  Task       32 on host co1589 reporting.
  Task       33 on host co1589 reporting.
  Task       34 on host co1589 reporting.
  Task       35 on host co1589 reporting.
  Task       36 on host co1589 reporting.
  Task       37 on host co1589 reporting.
  Task       38 on host co1589 reporting.
  Task       39 on host co1589 reporting.
  Task       40 on host co1602 reporting.
  Task       41 on host co1602 reporting.
  Task       42 on host co1602 reporting.
  Task       43 on host co1602 reporting.
  Task       44 on host co1602 reporting.
  Task       45 on host co1602 reporting.
  Task       46 on host co1602 reporting.
  Task       47 on host co1602 reporting.
  Task       48 on host co1602 reporting.
  Task       49 on host co1602 reporting.
  Task       50 on host co1602 reporting.
  Task       51 on host co1602 reporting.
  Task       52 on host co1602 reporting.
  Task       53 on host co1602 reporting.
  Task       54 on host co1602 reporting.
  Task       55 on host co1602 reporting.
  Task       56 on host co1602 reporting.
  Task       57 on host co1602 reporting.
  Task       58 on host co1602 reporting.
  Task       59 on host co1602 reporting.
  Task       60 on host co1602 reporting.
  Task       61 on host co1602 reporting.
  Task       62 on host co1602 reporting.
  Task       63 on host co1602 reporting.
  Task       64 on host co1602 reporting.
  Task       65 on host co1602 reporting.
  Task       66 on host co1602 reporting.
  Task       67 on host co1602 reporting.
  Task       68 on host co1602 reporting.
  Task       69 on host co1602 reporting.
  Task       70 on host co1602 reporting.
  Task       71 on host co1602 reporting.
  Task       72 on host co1602 reporting.
  Task       73 on host co1602 reporting.
  Task       74 on host co1602 reporting.
  Task       75 on host co1602 reporting.
  Task       76 on host co1602 reporting.
  Task       77 on host co1602 reporting.
  Task       78 on host co1602 reporting.
  Task       79 on host co1602 reporting.
  Task       80 on host co1604 reporting.
  Task       81 on host co1604 reporting.
  Task       82 on host co1604 reporting.
  Task       83 on host co1604 reporting.
  Task       84 on host co1604 reporting.
  Task       85 on host co1604 reporting.
  Task       86 on host co1604 reporting.
  Task       87 on host co1604 reporting.
  Task       88 on host co1604 reporting.
  Task       89 on host co1604 reporting.
  Task       90 on host co1604 reporting.
  Task       91 on host co1604 reporting.
  Task       92 on host co1604 reporting.
  Task       93 on host co1604 reporting.
  Task       94 on host co1604 reporting.
  Task       95 on host co1604 reporting.
  Task       96 on host co1604 reporting.
  Task       97 on host co1604 reporting.
  Task       98 on host co1604 reporting.
  Task       99 on host co1604 reporting.
  Task      100 on host co1604 reporting.
  Task      101 on host co1604 reporting.
  Task      102 on host co1604 reporting.
  Task      103 on host co1604 reporting.
  Task      104 on host co1604 reporting.
  Task      105 on host co1604 reporting.
  Task      106 on host co1604 reporting.
  Task      107 on host co1604 reporting.
  Task      108 on host co1604 reporting.
  Task      109 on host co1604 reporting.
  Task      110 on host co1604 reporting.
  Task      111 on host co1604 reporting.
  Task      112 on host co1604 reporting.
  Task      113 on host co1604 reporting.
  Task      114 on host co1604 reporting.
  Task      115 on host co1604 reporting.
  Task      116 on host co1604 reporting.
  Task      117 on host co1604 reporting.
  Task      118 on host co1604 reporting.
  Task      119 on host co1604 reporting.
  Task      120 on host co1615 reporting.
  Task      121 on host co1615 reporting.
  Task      122 on host co1615 reporting.
  Task      123 on host co1615 reporting.
  Task      124 on host co1615 reporting.
  Task      125 on host co1615 reporting.
  Task      126 on host co1615 reporting.
  Task      127 on host co1615 reporting.
  Task      128 on host co1615 reporting.
  Task      129 on host co1615 reporting.
  Task      130 on host co1615 reporting.
  Task      131 on host co1615 reporting.
  Task      132 on host co1615 reporting.
  Task      133 on host co1615 reporting.
  Task      134 on host co1615 reporting.
  Task      135 on host co1615 reporting.
  Task      136 on host co1615 reporting.
  Task      137 on host co1615 reporting.
  Task      138 on host co1615 reporting.
  Task      139 on host co1615 reporting.
  Task      140 on host co1615 reporting.
  Task      141 on host co1615 reporting.
  Task      142 on host co1615 reporting.
  Task      143 on host co1615 reporting.
  Task      144 on host co1615 reporting.
  Task      145 on host co1615 reporting.
  Task      146 on host co1615 reporting.
  Task      147 on host co1615 reporting.
  Task      148 on host co1615 reporting.
  Task      149 on host co1615 reporting.
  Task      150 on host co1615 reporting.
  Task      151 on host co1615 reporting.
  Task      152 on host co1615 reporting.
  Task      153 on host co1615 reporting.
  Task      154 on host co1615 reporting.
  Task      155 on host co1615 reporting.
  Task      156 on host co1615 reporting.
  Task      157 on host co1615 reporting.
  Task      158 on host co1615 reporting.
  Task      159 on host co1615 reporting.

  Performing system and environment tests:
  | Environment variable OMP_NUM_THREADS correctly set to 1.
  | Checking for ScaLAPACK...
  | Testing pdtran()...
  | All pdtran() tests passed.

  Obtaining array dimensions for all initial allocations:
  
  -----------------------------------------------------------------------
  Parsing control.in (first pass over file, find array dimensions only).
  The contents of control.in will be repeated verbatim below
  unless switched off by setting 'verbatim_writeout .false.' .
  in the first line of control.in .
  -----------------------------------------------------------------------
  
  ##### Physical settings  ################
  xc                 pbe
  spin               none
  charge      0.0
  relativistic       atomic_zora scalar
  #elsi_restart read
  # SCF settings
  relax_geometry  trm 1e-03
  #relax_unit_cell full          #for bulk
  use_symmetric_forces .true.
  
  #vdw_correction_hirshfeld
  occupation_type gaussian       0.01
  # k-grid settings  (to be adjusted)
  k_grid   2 2 1
  empty_states 8
  use_dipole_correction
  
  many_body_dispersion_nl    beta=0.81
  ################################################################################
  #
  #  FHI-aims code project
  # Volker Blum, Fritz Haber Institute Berlin, 2009
  #
  #  Suggested "tight" defaults for S atom (to be pasted into control.in file)
  #
  #  Revised Jan 04, 2011, following tests (SiC) done by Lydia Nemec:
  #     d and g functions of tier 2 now enabled by default.
  #
  ################################################################################
    species        S
  #     global species definitions
      nucleus             16
      mass                32.065
  #
      l_hartree           6
  #
      cut_pot             4.0          2.0  1.0
      basis_dep_cutoff    1e-4
  #
      radial_base         44 7.0
      radial_multiplier   2
      angular_grids       specified
        division   0.4665  110
        division   0.5810  194
        division   0.7139  302
        division   0.8274  434
  #      division   0.9105  590
  #      division   1.0975  770
  #      division   1.2028  974
  #      outer_grid  974
        outer_grid  434
  ################################################################################
  #
  #  Definition of "minimal" basis
  #
  ################################################################################
  #     valence basis states
      valence      3  s   2.
      valence      3  p   4.
  #     ion occupancy
      ion_occ      3  s   1.
      ion_occ      3  p   3.
  ################################################################################
  #
  #  Suggested additional basis functions. For production calculations,
  #  uncomment them one after another (the most important basis functions are
  #  listed first).
  #
  #  Constructed for dimers: 1.6 A, 1.9 A, 2.5 A, 3.25 A, 4.0 A
  #
  ################################################################################
  #  "First tier" - improvements: -652.81 meV to -45.53 meV
       ionic 3 d auto
       hydro 2 p 1.8
       hydro 4 f 7
       ionic 3 s auto
  #  "Second tier" - improvements: -30.20 meV to -1.74 meV
       hydro 4 d 6.2
       hydro 5 g 10.8
  #     hydro 4 p 4.9
  #     hydro 5 f 10
  #     hydro 1 s 0.8
  #  "Third tier" - improvements: -1.04 meV to -0.20 meV
  #     hydro 3 d 3.9
  #     hydro 3 d 2.7
  #     hydro 5 g 12
  #     hydro 4 p 10.4
  #     hydro 5 f 12.4
  #     hydro 2 s 1.9
  #  "Fourth tier" - improvements: -0.35 meV to -0.06 meV
  #     hydro 4 d 10.4
  #     hydro 4 p 7.2
  #     hydro 4 d 10
  #     hydro 5 g 19.2
  #     hydro 4 s 12
  
  ################################################################################
  #
  # For methods that use the localized form of the "resolution of identity" for
  # the two-electron Coulomb operator (RI_method LVL), particularly Hartree-Fock and
  # hybrid density functional calculations, the highest accuracy can be obtained by
  # uncommenting the line beginning with "for_aux"  below, thus adding an extra g radial
  # function to the construction of the product basis set for the expansion.
  # See Ref. New J. Phys. 17, 093020 (2015) for more information, particularly Figs. 1 and 6.
  #
  ################################################################################
  #
  # for_aux hydro 5 g 6.0
  ################################################################################
  #
  #  FHI-aims code project
  # Volker Blum, Fritz Haber Institute Berlin, 2009
  #
  #  Suggested "tight" defaults for Mo atom (to be pasted into control.in file)
  #
  ################################################################################
    species        Mo
  #     global species definitions
      nucleus             42
      mass                95.94
  #
      l_hartree           6
  #
      cut_pot             4.0  2.0  1.0
      basis_dep_cutoff    1e-4
  #
      radial_base         59 7.0
      radial_multiplier   2
      angular_grids specified
        division   0.3117   50
        division   0.6750  110
        division   1.0351  194
        division   1.2073  302
        division   1.6402  434
  #      division   1.9185  590
  #      division   2.0237  770
  #      division   2.0980  974
  #      division   2.7972 1202
  #      outer_grid  974
        outer_grid  434
  ################################################################################
  #
  #  Definition of "minimal" basis
  #
  ################################################################################
  #     valence basis states
      valence      5  s   1.
      valence      4  p   6.
      valence      4  d   5.
  #     ion occupancy
      ion_occ     5  s   0.
      ion_occ     4  p   6.
      ion_occ     4  d   4.
  ################################################################################
  #
  #  Suggested additional basis functions. For production calculations,
  #  uncomment them one after another (the most important basis functions are
  #  listed first).
  #
  #  Constructed for dimers: 1.675 A, 1.9 A, 2.375 A, 3.00 A, 4.00 A
  #
  ################################################################################
  #  "First tier"  - max. impr. -711.23  meV, min. impr. -21.07 meV
       hydro 4 f 8.4
       hydro 3 d 2.8
       ionic 5 p auto
       hydro 5 g 12
       ionic 5 s auto
  #  "Second tier" - max. impr. -39.38  meV, min. impr. -2.68 meV
  #     hydro 4 f 12.4
  #     hydro 3 d 3.3
  #     hydro 6 h 17.2
  #     hydro 4 f 7.6
  #     hydro 3 p 3.0
  #     hydro 1 s 0.65
  #  "Third tier"  - max. impr. -5.50 meV, min. impr. -0.47 meV
  #     hydro 4 f 29.2
  #     hydro 5 g 11.2
  #     hydro 3 d 6.8
  #     hydro 6 h 14.8
  #     hydro 2 p 2.3
  #     hydro 4 s 3.8
  #  "Fourth tier"  - max. impr. -0.58 meV, min. impr. -0.19 meV
  #     hydro 5 f 6.8
  #     hydro 5 d 14.8
  #     hydro 6 s 7.8
  #     hydro 5 g 20.8
  #     hydro 5 d 10.4
  #     hydro 5 p 9.8
  #  Further functions - -0.17 meV and below
  #     hydro 5 d 3.2
  ################################################################################
  #
  #  FHI-aims code project
  # Volker Blum, Fritz Haber Institute Berlin, 2009
  #
  #  Suggested "tight" defaults for W atom (to be pasted into control.in file)
  #
  ################################################################################
    species          W
  #     global species definitions
      nucleus        74
      mass           183.84
  #
      l_hartree      6
  #
      cut_pot        4.0  2.0  1.0
      basis_dep_cutoff    1e-4
  #
      radial_base    71  7.0
      radial_multiplier  2
      angular_grids specified
        division   0.2901   50
        division   0.6986  110
        division   1.0528  194
        division   1.2659  302
        division   1.5223  434
  #      division   1.8111  590
  #      division   2.0105  770
  #      division   2.0413  974
  #      division   2.8804 1202
  #      outer_grid  974
        outer_grid  434
  ################################################################################
  #
  #  Definition of "minimal" basis
  #
  ################################################################################
  #     valence basis states
      valence      6  s   2.
      valence      5  p   6.
      valence      5  d   4.
      valence      4  f  14.
  #     ion occupancy
      ion_occ      6  s   1.
      ion_occ      5  p   6.
      ion_occ      5  d   3.
      ion_occ      4  f  14.
  ################################################################################
  #
  #  Suggested additional basis functions. For production calculations,
  #  uncomment them one after another (the most important basis functions are
  #  listed first).
  #
  #  Constructed for dimers: 1.775, 1.99, 2.50, 3.25, 4.50 AA
  #
  ################################################################################
  #
  #  "First tier" - improvements: -603.77 meV to -28.99 meV
       hydro 4 f 7.8
       hydro 4 d 5.8
       ionic 6 p auto
       hydro 5 g 12.4
       ionic 6 s auto
  #  "Second tier" - improvements: -28.30 meV to -1.31 meV
  #     hydro 6 h 16.8
  #     ionic 5 d auto
  #     hydro 4 f 8.6
  #     hydro 5 g 16.8
  #     hydro 5 d 8.4
  #     hydro 3 p 3.3
  #     hydro 1 s 0.55
  #  "Third tier" - max. impr. -1.79 meV, min. impr. -0.26 meV
  #     hydro 5 f 10.8
  #     hydro 5 g 34.4
  #     hydro 6 h 20.8
  #     hydro 5 g 12.8
  #     hydro 2 p 1.6
  #     hydro 4 s 4.7
  #     hydro 6 d 18.4
  #  "Fourth tier" -0.46 max. impr. - meV, min. impr. -0.09 meV
  #     hydro 6 h 21.6
  #     hydro 5 f 22.4
  #     hydro 4 f 4
  #     hydro 5 p 9.6
  #     hydro 6 d 17.2
  #     hydro 3 p 5.2
  #     hydro 5 g 4.7
  #     hydro 6 s 7.6
  ################################################################################
  #
  #  FHI-aims code project
  # Volker Blum, Fritz Haber Institute Berlin, 2009
  #
  #  Suggested "tight" defaults for Se atom (to be pasted into control.in file)
  #
  ################################################################################
    species        Se
  #     global species definitions
      nucleus             34
      mass                78.96
  #
      l_hartree           6
  #
      cut_pot             4.0          2.0  1.0
      basis_dep_cutoff    1e-4
  #
      radial_base         55 7.0
      radial_multiplier   2
      angular_grids       specified
        division   0.0830  110
        division   0.1357  194
        division   0.7377  302
        division   0.8610  434
  #      division   0.9640  590
  #      division   1.0773  770
  #      division   2.5539  974
  #      outer_grid  974
        outer_grid  434
  ################################################################################
  #
  #  Definition of "minimal" basis
  #
  ################################################################################
  #     valence basis states
      valence      4  s   2.
      valence      4  p   4.
      valence      3  d  10.
  #     ion occupancy
      ion_occ      4  s   1.
      ion_occ      4  p   3.
      ion_occ      3  d  10.
  ################################################################################
  #
  #  Suggested additional basis functions. For production calculations,
  #  uncomment them one after another (the most important basis functions are
  #  listed first).
  #
  #  Constructed for dimers: 1.85 A, 2.15 A, 2.50 A, 3.00 A, 4.00 A
  #
  ################################################################################
  #  "First tier" - improvements: -336.21 meV to -36.85 meV
       hydro 3 d 4.3
       hydro 2 p 1.6
       hydro 4 f 7.2
       ionic 4 s auto
  #  "Second tier" - improvements: -14.39 meV to -1.49 meV
  #     hydro 5 g 10.4
  #     hydro 4 p 4.5
  #     hydro 4 d 6.2
  #     hydro 4 f 11.2
  #     hydro 1 s 0.65
  #     hydro 6 h 15.2
  #  "Third tier" - improvements: -0.46 meV and below
  #     hydro 5 g 14.4
  #     ionic 4 d auto
  #     hydro 4 f 22.4
  #     hydro 5 f 7.4
  #     hydro 5 p 8
  #     hydro 5 s 9.4
  #  "Fourth tier" - improvements: -0.12 meV and below
  #     hydro 5 d 11.6
  #     hydro 6 h 18
  #     hydro 4 p 4
  #     hydro 5 f 16
  #     hydro 4 s 3.9
  
  
  
  -----------------------------------------------------------------------
  Completed first pass over input file control.in .
  -----------------------------------------------------------------------
  
  
  -----------------------------------------------------------------------
  Parsing geometry.in (first pass over file, find array dimensions only).
  The contents of geometry.in will be repeated verbatim below
  unless switched off by setting 'verbatim_writeout .false.' .
  in the first line of geometry.in .
  -----------------------------------------------------------------------
  
  #
  # This is the geometry file that corresponds to the current relaxation step.
  # If you do not want this file to be written, set the "write_restart_geometry" flag to .false.
  #  aims_uuid : 8F33E7B8-AC9C-4647-A4EB-7831F7B2B1D0
  #
    set_vacuum_level        52.979670
  lattice_vector     16.44347560      0.00000000      0.00000000
  lattice_vector     -8.22357185     14.23911350      0.00000000
  lattice_vector      0.00000000      0.00000000     99.63748923
  atom       0.03824493      1.02067519      2.72224698 W
  atom       1.66996448      1.93728454      4.44895079 Se
  atom       1.70336145      2.00416304      1.07663280 Se
  atom      -1.59623661      3.87525870      2.71602314 W
  atom       0.02913806      4.84790542      4.42396123 Se
  atom       0.08806708      4.81670713      1.05320337 Se
  atom      -3.25557436      6.71938370      2.68452559 W
  atom      -1.62765415      7.68916728      4.37018621 Se
  atom      -1.62214985      7.66856082      0.97621379 Se
  atom      -4.88655925      9.57259468      2.68416093 W
  atom      -3.23898606     10.51293494      4.37258016 Se
  atom      -3.25883079     10.53726540      0.99219422 Se
  atom      -6.53000206     12.42339300      2.69886734 W
  atom      -4.88873880     13.34162511      4.40937185 Se
  atom      -4.88782053     13.39685161      1.02648276 Se
  atom       3.33264549      1.02339220      2.75667467 W
  atom       4.99634078      1.93296977      4.44902480 Se
  atom       4.95779534      2.01549369      1.08225879 Se
  atom       1.69678047      3.86743898      2.80352586 W
  atom       3.32984313      4.65975464      4.62809137 Se
  atom       3.31606611      5.07881584      1.33923692 Se
  atom       0.00436041      6.73758475      2.69042115 W
  atom       1.78582326      7.55567759      4.17316457 Se
  atom       1.59773828      7.71156875      0.89410751 Se
  atom      -1.61167061      9.57240572      2.66120554 W
  atom       0.06876476     10.48866593      4.32784218 Se
  atom      -0.01381211     10.56144373      0.94887635 Se
  atom      -3.24615691     12.42201126      2.69960416 W
  atom      -1.58991331     13.34620781      4.39139291 Se
  atom      -1.61933949     13.39043168      1.00558969 Se
  atom       6.62673153      1.02024307      2.72074519 W
  atom       8.27718070      1.97021505      4.39764973 Se
  atom       8.25096156      1.98449121      1.02089079 Se
  atom       4.94722653      3.87628328      2.82151592 W
  atom       6.62906318      4.86299314      4.41984439 Se
  atom       6.56100089      4.82292012      1.05926476 Se
  atom       4.88540961      7.58618117      4.16284383 Se
  atom       5.09983216      7.72770526      0.87086092 Se
  atom       1.64534402      9.54371120      2.55783383 W
  atom       3.33615727     10.42888928      4.25296571 Se
  atom       3.33321695     10.51350077      0.91090828 Se
  atom       0.03547367     12.42390457      2.67459809 W
  atom       1.70393061     13.33677010      4.35597844 Se
  atom       1.67518014     13.37650276      0.98164207 Se
  atom       9.90802331      1.02075700      2.69111265 W
  atom      11.55259158      1.96694379      4.37938299 Se
  atom      11.55266073      1.97429039      1.00479638 Se
  atom       8.25299335      3.87894410      2.71584408 W
  atom       9.91425530      4.82940212      4.38508364 Se
  atom       9.89568097      4.81278346      1.00905510 Se
  atom       6.66106826      6.75495221      2.67541816 W
  atom       8.29302601      7.69404895      4.36468137 Se
  atom       8.30205337      7.67429962      0.97156181 Se
  atom       5.03061158      9.55673335      2.55441322 W
  atom       6.60503931     10.49634206      4.32579146 Se
  atom       6.68770711     10.56999209      0.94263879 Se
  atom       3.33080088     12.39455107      2.63843934 W
  atom       4.95918759     13.33559491      4.35498468 Se
  atom       4.98595557     13.37669273      0.98106760 Se
  atom      13.19767306      1.01967129      2.69123562 W
  atom      14.82724317      1.96675158      4.39897790 Se
  atom      14.85444521      1.98115484      1.02140657 Se
  atom      11.55153574      3.87178337      2.69390933 W
  atom      13.18831944      4.82792760      4.38582143 Se
  atom      13.20657108      4.81129030      1.00853109 Se
  atom       9.92481601      6.72198474      2.68388844 W
  atom      11.55610797      7.67622261      4.37713498 Se
  atom      11.55779772      7.67322437      0.99140479 Se
  atom       8.28316145      9.57780452      2.65682880 W
  atom       9.90836958     10.51425068      4.37128980 Se
  atom       9.93207001     10.54038490      0.99002799 Se
  atom       6.63142474     12.42738762      2.67236308 W
  atom       8.25561940     13.34717194      4.39133038 Se
  atom       8.28581250     13.39298797      1.00491893 Se
  #
  # What follows is the current estimated Hessian matrix constructed by the BFGS algorithm.
  # This is NOT the true Hessian matrix of the system.
  # If you do not want this information here, switch it off using the "hessian_to_restart_geometry" keyword.
  #
  
  -----------------------------------------------------------------------
  Completed first pass over input file geometry.in .
  -----------------------------------------------------------------------
  

  Basic array size parameters:
  | Number of species                 :        4
  | Number of atoms                   :       74
  | Number of lattice vectors         :        3
  | Max. basis fn. angular momentum   :        4
  | Max. atomic/ionic basis occupied n:        6
  | Max. number of basis fn. types    :        3
  | Max. radial fns per species/type  :       14
  | Max. logarithmic grid size        :     1483
  | Max. radial integration grid size :      143
  | Max. angular integration grid size:      434
  | Max. angular grid division number :        8
  | Radial grid for Hartree potential :     1483
  | Number of spin channels           :        1

------------------------------------------------------------
          Reading file control.in.
------------------------------------------------------------
  XC: Using PBE gradient-corrected functionals.
  Spin treatment: No spin polarisation.
  Charge =   0.000000E+00: Neutral system requested explicitly.
  Scalar relativistic treatment of kinetic energy: on-site free-atom approximation to ZORA.
  Geometry relaxation: Modified BFGS - TRM (trust radius method) for lattice optimization.
  Convergence accuracy for geometry relaxation: Maximum force <   0.100000E-02 eV/A.
  Occupation type: Gaussian broadening, width =   0.100000E-01 eV.
  Found k-point grid:         2         2         1
  Number of empty states per atom:        8
  Using dipole correction.
  Using libMBD for calculating MBD and TS energies
 
  Reading configuration options for species S                   .
  | Found nuclear charge :  16.0000
  | Found atomic mass :    32.0650000000000      amu
  | Found l_max for Hartree potential  :   6
  | Found cutoff potl. onset [A], width [A], scale factor :    4.00000    2.00000    1.00000
  | Threshold for basis-dependent cutoff potential is   0.100000E-03
  | Found data for basic radial integration grid :    44 points, outermost radius =    7.000 A
  | Found multiplier for basic radial grid :   2
  | Found angular grid specification: user-specified.
  | Specified grid contains     5 separate shells.
  | Check grid settings after all constraints further below.
  | Found free-atom valence shell :  3 s   2.000
  | Found free-atom valence shell :  3 p   4.000
  | Found free-ion valence shell :  3 s   1.000
  | Found free-ion valence shell :  3 p   3.000
  | Found ionic basis function :  3 d , default cutoff radius.
  | Found hydrogenic basis function :  2 p   1.800
  | Found hydrogenic basis function :  4 f   7.000
  | Found ionic basis function :  3 s , default cutoff radius.
  | Found hydrogenic basis function :  4 d   6.200
  | Found hydrogenic basis function :  5 g  10.800
  Species S                   : Missing cutoff potential type.
  Defaulting to exp(1/x)/(1-x)^2 type cutoff potential.
  Species S : No 'logarithmic' tag. Using default grid for free atom:
  | Default logarithmic grid data [bohr] : 0.1000E-03 0.1000E+03 0.1012E+01
  | Will include ionic basis functions of  2.0-fold positive S                    ion.
  Species S : On-site basis accuracy parameter (for Gram-Schmidt orthonormalisation) not specified.
  Using default value basis_acc =  0.1000000E-03.
  Species S                   : Using default innermost maximum threshold i_radial=  2 for radial functions.
  Species S                   : Default cutoff onset for free atom density etc. : 0.40000000E+01 AA.
  Species S                   : Basic radial grid will be enhanced according to radial_multiplier =   2, to contain    89 grid points.
 
  Reading configuration options for species Mo                  .
  | Found nuclear charge :  42.0000
  | Found atomic mass :    95.9400000000000      amu
  | Found l_max for Hartree potential  :   6
  | Found cutoff potl. onset [A], width [A], scale factor :    4.00000    2.00000    1.00000
  | Threshold for basis-dependent cutoff potential is   0.100000E-03
  | Found data for basic radial integration grid :    59 points, outermost radius =    7.000 A
  | Found multiplier for basic radial grid :   2
  | Found angular grid specification: user-specified.
  | Specified grid contains     6 separate shells.
  | Check grid settings after all constraints further below.
  | Found free-atom valence shell :  5 s   1.000
  | Found free-atom valence shell :  4 p   6.000
  | Found free-atom valence shell :  4 d   5.000
  | Found free-ion valence shell :  5 s   0.000
  | Found free-ion valence shell :  4 p   6.000
  | Found free-ion valence shell :  4 d   4.000
  | Found hydrogenic basis function :  4 f   8.400
  | Found hydrogenic basis function :  3 d   2.800
  | Found ionic basis function :  5 p , default cutoff radius.
  | Found hydrogenic basis function :  5 g  12.000
  | Found ionic basis function :  5 s , default cutoff radius.
  Species Mo                  : Missing cutoff potential type.
  Defaulting to exp(1/x)/(1-x)^2 type cutoff potential.
  Species Mo: No 'logarithmic' tag. Using default grid for free atom:
  | Default logarithmic grid data [bohr] : 0.1000E-03 0.1000E+03 0.1012E+01
  | Will include ionic basis functions of  2.0-fold positive Mo                   ion.
  Species Mo: On-site basis accuracy parameter (for Gram-Schmidt orthonormalisation) not specified.
  Using default value basis_acc =  0.1000000E-03.
  Species Mo                  : Using default innermost maximum threshold i_radial=  2 for radial functions.
  Species Mo                  : Default cutoff onset for free atom density etc. : 0.40000000E+01 AA.
  Species Mo                  : Basic radial grid will be enhanced according to radial_multiplier =   2, to contain   119 grid points.
 
  Reading configuration options for species W                   .
  | Found nuclear charge :  74.0000
  | Found atomic mass :    183.840000000000      amu
  | Found l_max for Hartree potential  :   6
  | Found cutoff potl. onset [A], width [A], scale factor :    4.00000    2.00000    1.00000
  | Threshold for basis-dependent cutoff potential is   0.100000E-03
  | Found data for basic radial integration grid :    71 points, outermost radius =    7.000 A
  | Found multiplier for basic radial grid :   2
  | Found angular grid specification: user-specified.
  | Specified grid contains     6 separate shells.
  | Check grid settings after all constraints further below.
  | Found free-atom valence shell :  6 s   2.000
  | Found free-atom valence shell :  5 p   6.000
  | Found free-atom valence shell :  5 d   4.000
  | Found free-atom valence shell :  4 f  14.000
  | Found free-ion valence shell :  6 s   1.000
  | Found free-ion valence shell :  5 p   6.000
  | Found free-ion valence shell :  5 d   3.000
  | Found free-ion valence shell :  4 f  14.000
  | Found hydrogenic basis function :  4 f   7.800
  | Found hydrogenic basis function :  4 d   5.800
  | Found ionic basis function :  6 p , default cutoff radius.
  | Found hydrogenic basis function :  5 g  12.400
  | Found ionic basis function :  6 s , default cutoff radius.
  Species W                   : Missing cutoff potential type.
  Defaulting to exp(1/x)/(1-x)^2 type cutoff potential.
  Species W : No 'logarithmic' tag. Using default grid for free atom:
  | Default logarithmic grid data [bohr] : 0.1000E-03 0.1000E+03 0.1012E+01
  | Will include ionic basis functions of  2.0-fold positive W                    ion.
  Species W : On-site basis accuracy parameter (for Gram-Schmidt orthonormalisation) not specified.
  Using default value basis_acc =  0.1000000E-03.
  Species W                   : Using default innermost maximum threshold i_radial=  2 for radial functions.
  Species W                   : Default cutoff onset for free atom density etc. : 0.40000000E+01 AA.
  Species W                   : Basic radial grid will be enhanced according to radial_multiplier =   2, to contain   143 grid points.
 
  Reading configuration options for species Se                  .
  | Found nuclear charge :  34.0000
  | Found atomic mass :    78.9600000000000      amu
  | Found l_max for Hartree potential  :   6
  | Found cutoff potl. onset [A], width [A], scale factor :    4.00000    2.00000    1.00000
  | Threshold for basis-dependent cutoff potential is   0.100000E-03
  | Found data for basic radial integration grid :    55 points, outermost radius =    7.000 A
  | Found multiplier for basic radial grid :   2
  | Found angular grid specification: user-specified.
  | Specified grid contains     5 separate shells.
  | Check grid settings after all constraints further below.
  | Found free-atom valence shell :  4 s   2.000
  | Found free-atom valence shell :  4 p   4.000
  | Found free-atom valence shell :  3 d  10.000
  | Found free-ion valence shell :  4 s   1.000
  | Found free-ion valence shell :  4 p   3.000
  | Found free-ion valence shell :  3 d  10.000
  | Found hydrogenic basis function :  3 d   4.300
  | Found hydrogenic basis function :  2 p   1.600
  | Found hydrogenic basis function :  4 f   7.200
  | Found ionic basis function :  4 s , default cutoff radius.
  Species Se                  : Missing cutoff potential type.
  Defaulting to exp(1/x)/(1-x)^2 type cutoff potential.
  Species Se: No 'logarithmic' tag. Using default grid for free atom:
  | Default logarithmic grid data [bohr] : 0.1000E-03 0.1000E+03 0.1012E+01
  | Will include ionic basis functions of  2.0-fold positive Se                   ion.
  Species Se: On-site basis accuracy parameter (for Gram-Schmidt orthonormalisation) not specified.
  Using default value basis_acc =  0.1000000E-03.
  Species Se                  : Using default innermost maximum threshold i_radial=  2 for radial functions.
  Species Se                  : Default cutoff onset for free atom density etc. : 0.40000000E+01 AA.
  Species Se                  : Basic radial grid will be enhanced according to radial_multiplier =   2, to contain   111 grid points.
 
  Finished reading input file 'control.in'.
 
------------------------------------------------------------


------------------------------------------------------------
          Reading geometry description geometry.in.
------------------------------------------------------------
  Vacuum level in z-axis :   0.529797E+02
  | The smallest distance between any two atoms is         2.45792877 AA.
  | The first atom of this pair is atom number                     23 .
  | The second atom of this pair is atom number                    22 .
  | Wigner-Seitz cell of the first atom image           0     1     0 .
  | (The Wigner-Seitz cell of the second atom is 0 0 0  by definition.)

  Symmetry information by spglib:
  | Precision set to  0.1E-04
  | Number of Operations  : 1
  | Space group           : 1
  | International         : P1
  | Schoenflies           : C1^1
  Input structure read successfully.
  The structure contains       74 atoms,  and a total of       3476.000 electrons.

  Input geometry:
  | Unit cell:
  |       16.44347560        0.00000000        0.00000000
  |       -8.22357185       14.23911350        0.00000000
  |        0.00000000        0.00000000       99.63748923
  | Atomic structure:
  |       Atom                x [A]            y [A]            z [A]
  |    1: Species W             0.03824493        1.02067519        2.72224698
  |    2: Species Se            1.66996448        1.93728454        4.44895079
  |    3: Species Se            1.70336145        2.00416304        1.07663280
  |    4: Species W            -1.59623661        3.87525870        2.71602314
  |    5: Species Se            0.02913806        4.84790542        4.42396123
  |    6: Species Se            0.08806708        4.81670713        1.05320337
  |    7: Species W            -3.25557436        6.71938370        2.68452559
  |    8: Species Se           -1.62765415        7.68916728        4.37018621
  |    9: Species Se           -1.62214985        7.66856082        0.97621379
  |   10: Species W            -4.88655925        9.57259468        2.68416093
  |   11: Species Se           -3.23898606       10.51293494        4.37258016
  |   12: Species Se           -3.25883079       10.53726540        0.99219422
  |   13: Species W            -6.53000206       12.42339300        2.69886734
  |   14: Species Se           -4.88873880       13.34162511        4.40937185
  |   15: Species Se           -4.88782053       13.39685161        1.02648276
  |   16: Species W             3.33264549        1.02339220        2.75667467
  |   17: Species Se            4.99634078        1.93296977        4.44902480
  |   18: Species Se            4.95779534        2.01549369        1.08225879
  |   19: Species W             1.69678047        3.86743898        2.80352586
  |   20: Species Se            3.32984313        4.65975464        4.62809137
  |   21: Species Se            3.31606611        5.07881584        1.33923692
  |   22: Species W             0.00436041        6.73758475        2.69042115
  |   23: Species Se            1.78582326        7.55567759        4.17316457
  |   24: Species Se            1.59773828        7.71156875        0.89410751
  |   25: Species W            -1.61167061        9.57240572        2.66120554
  |   26: Species Se            0.06876476       10.48866593        4.32784218
  |   27: Species Se           -0.01381211       10.56144373        0.94887635
  |   28: Species W            -3.24615691       12.42201126        2.69960416
  |   29: Species Se           -1.58991331       13.34620781        4.39139291
  |   30: Species Se           -1.61933949       13.39043168        1.00558969
  |   31: Species W             6.62673153        1.02024307        2.72074519
  |   32: Species Se            8.27718070        1.97021505        4.39764973
  |   33: Species Se            8.25096156        1.98449121        1.02089079
  |   34: Species W             4.94722653        3.87628328        2.82151592
  |   35: Species Se            6.62906318        4.86299314        4.41984439
  |   36: Species Se            6.56100089        4.82292012        1.05926476
  |   37: Species Se            4.88540961        7.58618117        4.16284383
  |   38: Species Se            5.09983216        7.72770526        0.87086092
  |   39: Species W             1.64534402        9.54371120        2.55783383
  |   40: Species Se            3.33615727       10.42888928        4.25296571
  |   41: Species Se            3.33321695       10.51350077        0.91090828
  |   42: Species W             0.03547367       12.42390457        2.67459809
  |   43: Species Se            1.70393061       13.33677010        4.35597844
  |   44: Species Se            1.67518014       13.37650276        0.98164207
  |   45: Species W             9.90802331        1.02075700        2.69111265
  |   46: Species Se           11.55259158        1.96694379        4.37938299
  |   47: Species Se           11.55266073        1.97429039        1.00479638
  |   48: Species W             8.25299335        3.87894410        2.71584408
  |   49: Species Se            9.91425530        4.82940212        4.38508364
  |   50: Species Se            9.89568097        4.81278346        1.00905510
  |   51: Species W             6.66106826        6.75495221        2.67541816
  |   52: Species Se            8.29302601        7.69404895        4.36468137
  |   53: Species Se            8.30205337        7.67429962        0.97156181
  |   54: Species W             5.03061158        9.55673335        2.55441322
  |   55: Species Se            6.60503931       10.49634206        4.32579146
  |   56: Species Se            6.68770711       10.56999209        0.94263879
  |   57: Species W             3.33080088       12.39455107        2.63843934
  |   58: Species Se            4.95918759       13.33559491        4.35498468
  |   59: Species Se            4.98595557       13.37669273        0.98106760
  |   60: Species W            13.19767306        1.01967129        2.69123562
  |   61: Species Se           14.82724317        1.96675158        4.39897790
  |   62: Species Se           14.85444521        1.98115484        1.02140657
  |   63: Species W            11.55153574        3.87178337        2.69390933
  |   64: Species Se           13.18831944        4.82792760        4.38582143
  |   65: Species Se           13.20657108        4.81129030        1.00853109
  |   66: Species W             9.92481601        6.72198474        2.68388844
  |   67: Species Se           11.55610797        7.67622261        4.37713498
  |   68: Species Se           11.55779772        7.67322437        0.99140479
  |   69: Species W             8.28316145        9.57780452        2.65682880
  |   70: Species Se            9.90836958       10.51425068        4.37128980
  |   71: Species Se            9.93207001       10.54038490        0.99002799
  |   72: Species W             6.63142474       12.42738762        2.67236308
  |   73: Species Se            8.25561940       13.34717194        4.39133038
  |   74: Species Se            8.28581250       13.39298797        1.00491893

  Lattice parameters for 3D lattice (in Angstroms) :    16.443476   16.443220   99.637489
  Angle(s) between unit vectors (in degrees)       :    90.000000   90.000000  120.007894


  Quantities derived from the lattice vectors:
  | Reciprocal lattice vector 1:  0.382108  0.220680  0.000000
  | Reciprocal lattice vector 2: -0.000000  0.441262  0.000000
  | Reciprocal lattice vector 3:  0.000000  0.000000  0.063060
  | Unit cell volume                               :   0.233292E+05  A^3

  Fractional coordinates:
                         L1                L2                L3
       atom_frac         0.03817438        0.07168109        0.02732151  W
       atom_frac         0.16959992        0.13605373        0.04465137  Se
       atom_frac         0.17397987        0.14075055        0.01080550  Se
       atom_frac         0.03903414        0.27215590        0.02725905  W
       atom_frac         0.17204198        0.34046399        0.04440057  Se
       atom_frac         0.17452996        0.33827296        0.01057035  Se
       atom_frac         0.03801496        0.47189621        0.02694293  W
       atom_frac         0.17107704        0.54000323        0.04386086  Se
       atom_frac         0.17068804        0.53855606        0.00979766  Se
       atom_frac         0.03903916        0.67227462        0.02693927  W
       atom_frac         0.17226231        0.73831387        0.04388489  Se
       atom_frac         0.17191001        0.74002257        0.00995804  Se
       atom_frac         0.03922100        0.87248360        0.02708687  W
       atom_frac         0.17128392        0.93697021        0.04425414  Se
       atom_frac         0.17327945        0.94084871        0.01030217  Se
       atom_frac         0.23861678        0.07187190        0.02766704  W
       atom_frac         0.37173993        0.13575071        0.04465212  Se
       atom_frac         0.37229425        0.14154629        0.01086196  Se
       atom_frac         0.23902233        0.27160672        0.02813726  W
       atom_frac         0.36616406        0.32725033        0.04644930  Se
       atom_frac         0.38004464        0.35668062        0.01344109  Se
       atom_frac         0.23690518        0.47317445        0.02700210  W
       atom_frac         0.37397713        0.53062837        0.04188348  Se
       atom_frac         0.36801412        0.54157646        0.00897361  Se
       atom_frac         0.23819289        0.67226135        0.02670888  W
       atom_frac         0.37256878        0.73660948        0.04343588  Se
       atom_frac         0.37010305        0.74172059        0.00952329  Se
       atom_frac         0.23887752        0.87238656        0.02709426  W
       atom_frac         0.37206095        0.93729204        0.04407370  Se
       atom_frac         0.37182466        0.94039785        0.01009248  Se
       atom_frac         0.43883402        0.07165074        0.02730644  W
       atom_frac         0.57257037        0.13836641        0.04413650  Se
       atom_frac         0.57147728        0.13936901        0.01024605  Se
       atom_frac         0.43700687        0.27222785        0.02831781  W
       atom_frac         0.57394235        0.34152359        0.04435925  Se
       atom_frac         0.56839572        0.33870930        0.01063119  Se
       atom_frac         0.56354795        0.53277061        0.04177989  Se
       atom_frac         0.58155859        0.54270972        0.00874029  Se
       atom_frac         0.43525844        0.67024616        0.02567140  W
       atom_frac         0.56917378        0.73241142        0.04268439  Se
       atom_frac         0.57196672        0.73835360        0.00914222  Se
       atom_frac         0.43851439        0.87251953        0.02684329  W
       atom_frac         0.57204260        0.93662924        0.04371827  Se
       atom_frac         0.57168966        0.93941963        0.00985214  Se
       atom_frac         0.63840184        0.07168684        0.02700904  W
       atom_frac         0.77164760        0.13813667        0.04395316  Se
       atom_frac         0.77190983        0.13865262        0.01008452  Se
       atom_frac         0.63813853        0.27241472        0.02725725  W
       atom_frac         0.77254952        0.33916452        0.04401038  Se
       atom_frac         0.77083624        0.33799741        0.01012726  Se
       atom_frac         0.64233882        0.47439415        0.02685152  W
       atom_frac         0.77456865        0.54034607        0.04380561  Se
       atom_frac         0.77442400        0.53895909        0.00975097  Se
       atom_frac         0.64158880        0.67116070        0.02563707  W
       atom_frac         0.77033796        0.73714856        0.04341530  Se
       atom_frac         0.77795212        0.74232094        0.00946068  Se
       atom_frac         0.63788675        0.87045806        0.02648039  W
       atom_frac         0.76996780        0.93654671        0.04370829  Se
       atom_frac         0.77303913        0.93943297        0.00984637  Se
       atom_frac         0.83842177        0.07161059        0.02701027  W
       atom_frac         0.97078680        0.13812318        0.04414983  Se
       atom_frac         0.97294695        0.13913470        0.01025123  Se
       atom_frac         0.83848588        0.27191183        0.02703711  W
       atom_frac         0.97160795        0.33906097        0.04401778  Se
       atom_frac         0.97213357        0.33789255        0.01012200  Se
       atom_frac         0.83966376        0.47207888        0.02693653  W
       atom_frac         0.97238490        0.53909414        0.04393060  Se
       atom_frac         0.97238235        0.53888357        0.00995012  Se
       atom_frac         0.84013072        0.67264051        0.02666495  W
       atom_frac         0.97185698        0.73840627        0.04387194  Se
       atom_frac         0.97421621        0.74024165        0.00993630  Se
       atom_frac         0.83976549        0.87276414        0.02682086  W
       atom_frac         0.97084492        0.93735975        0.04407307  Se
       atom_frac         0.97429026        0.94057737        0.01008575  Se

 
  Finished reading input file 'control.in'.
 

------------------------------------------------------------
          Reading geometry description geometry.in.
------------------------------------------------------------
 
  Consistency checks for stacksize environment parameter are next.
 
  | Maximum stacksize for task 0: unlimited
  | Maximum stacksize for task 1: unlimited
  | Maximum stacksize for task 2: unlimited
  | Maximum stacksize for task 3: unlimited
  | Maximum stacksize for task 4: unlimited
  | Maximum stacksize for task 5: unlimited
  | Maximum stacksize for task 6: unlimited
  | Maximum stacksize for task 7: unlimited
  | Maximum stacksize for task 8: unlimited
  | Maximum stacksize for task 9: unlimited
  | Maximum stacksize for task 10: unlimited
  | Maximum stacksize for task 11: unlimited
  | Maximum stacksize for task 12: unlimited
  | Maximum stacksize for task 13: unlimited
  | Maximum stacksize for task 14: unlimited
  | Maximum stacksize for task 15: unlimited
  | Maximum stacksize for task 16: unlimited
  | Maximum stacksize for task 17: unlimited
  | Maximum stacksize for task 18: unlimited
  | Maximum stacksize for task 19: unlimited
  | Maximum stacksize for task 20: unlimited
  | Maximum stacksize for task 21: unlimited
  | Maximum stacksize for task 22: unlimited
  | Maximum stacksize for task 23: unlimited
  | Maximum stacksize for task 24: unlimited
  | Maximum stacksize for task 25: unlimited
  | Maximum stacksize for task 26: unlimited
  | Maximum stacksize for task 27: unlimited
  | Maximum stacksize for task 28: unlimited
  | Maximum stacksize for task 29: unlimited
  | Maximum stacksize for task 30: unlimited
  | Maximum stacksize for task 31: unlimited
  | Maximum stacksize for task 32: unlimited
  | Maximum stacksize for task 33: unlimited
  | Maximum stacksize for task 34: unlimited
  | Maximum stacksize for task 35: unlimited
  | Maximum stacksize for task 36: unlimited
  | Maximum stacksize for task 37: unlimited
  | Maximum stacksize for task 38: unlimited
  | Maximum stacksize for task 39: unlimited
  | Maximum stacksize for task 40: unlimited
  | Maximum stacksize for task 41: unlimited
  | Maximum stacksize for task 42: unlimited
  | Maximum stacksize for task 43: unlimited
  | Maximum stacksize for task 44: unlimited
  | Maximum stacksize for task 45: unlimited
  | Maximum stacksize for task 46: unlimited
  | Maximum stacksize for task 47: unlimited
  | Maximum stacksize for task 48: unlimited
  | Maximum stacksize for task 49: unlimited
  | Maximum stacksize for task 50: unlimited
  | Maximum stacksize for task 51: unlimited
  | Maximum stacksize for task 52: unlimited
  | Maximum stacksize for task 53: unlimited
  | Maximum stacksize for task 54: unlimited
  | Maximum stacksize for task 55: unlimited
  | Maximum stacksize for task 56: unlimited
  | Maximum stacksize for task 57: unlimited
  | Maximum stacksize for task 58: unlimited
  | Maximum stacksize for task 59: unlimited
  | Maximum stacksize for task 60: unlimited
  | Maximum stacksize for task 61: unlimited
  | Maximum stacksize for task 62: unlimited
  | Maximum stacksize for task 63: unlimited
  | Maximum stacksize for task 64: unlimited
  | Maximum stacksize for task 65: unlimited
  | Maximum stacksize for task 66: unlimited
  | Maximum stacksize for task 67: unlimited
  | Maximum stacksize for task 68: unlimited
  | Maximum stacksize for task 69: unlimited
  | Maximum stacksize for task 70: unlimited
  | Maximum stacksize for task 71: unlimited
  | Maximum stacksize for task 72: unlimited
  | Maximum stacksize for task 73: unlimited
  | Maximum stacksize for task 74: unlimited
  | Maximum stacksize for task 75: unlimited
  | Maximum stacksize for task 76: unlimited
  | Maximum stacksize for task 77: unlimited
  | Maximum stacksize for task 78: unlimited
  | Maximum stacksize for task 79: unlimited
  | Maximum stacksize for task 80: unlimited
  | Maximum stacksize for task 81: unlimited
  | Maximum stacksize for task 82: unlimited
  | Maximum stacksize for task 83: unlimited
  | Maximum stacksize for task 84: unlimited
  | Maximum stacksize for task 85: unlimited
  | Maximum stacksize for task 86: unlimited
  | Maximum stacksize for task 87: unlimited
  | Maximum stacksize for task 88: unlimited
  | Maximum stacksize for task 89: unlimited
  | Maximum stacksize for task 90: unlimited
  | Maximum stacksize for task 91: unlimited
  | Maximum stacksize for task 92: unlimited
  | Maximum stacksize for task 93: unlimited
  | Maximum stacksize for task 94: unlimited
  | Maximum stacksize for task 95: unlimited
  | Maximum stacksize for task 96: unlimited
  | Maximum stacksize for task 97: unlimited
  | Maximum stacksize for task 98: unlimited
  | Maximum stacksize for task 99: unlimited
  | Maximum stacksize for task 100: unlimited
  | Maximum stacksize for task 101: unlimited
  | Maximum stacksize for task 102: unlimited
  | Maximum stacksize for task 103: unlimited
  | Maximum stacksize for task 104: unlimited
  | Maximum stacksize for task 105: unlimited
  | Maximum stacksize for task 106: unlimited
  | Maximum stacksize for task 107: unlimited
  | Maximum stacksize for task 108: unlimited
  | Maximum stacksize for task 109: unlimited
  | Maximum stacksize for task 110: unlimited
  | Maximum stacksize for task 111: unlimited
  | Maximum stacksize for task 112: unlimited
  | Maximum stacksize for task 113: unlimited
  | Maximum stacksize for task 114: unlimited
  | Maximum stacksize for task 115: unlimited
  | Maximum stacksize for task 116: unlimited
  | Maximum stacksize for task 117: unlimited
  | Maximum stacksize for task 118: unlimited
  | Maximum stacksize for task 119: unlimited
  | Maximum stacksize for task 120: unlimited
  | Maximum stacksize for task 121: unlimited
  | Maximum stacksize for task 122: unlimited
  | Maximum stacksize for task 123: unlimited
  | Maximum stacksize for task 124: unlimited
  | Maximum stacksize for task 125: unlimited
  | Maximum stacksize for task 126: unlimited
  | Maximum stacksize for task 127: unlimited
  | Maximum stacksize for task 128: unlimited
  | Maximum stacksize for task 129: unlimited
  | Maximum stacksize for task 130: unlimited
  | Maximum stacksize for task 131: unlimited
  | Maximum stacksize for task 132: unlimited
  | Maximum stacksize for task 133: unlimited
  | Maximum stacksize for task 134: unlimited
  | Maximum stacksize for task 135: unlimited
  | Maximum stacksize for task 136: unlimited
  | Maximum stacksize for task 137: unlimited
  | Maximum stacksize for task 138: unlimited
  | Maximum stacksize for task 139: unlimited
  | Maximum stacksize for task 140: unlimited
  | Maximum stacksize for task 141: unlimited
  | Maximum stacksize for task 142: unlimited
  | Maximum stacksize for task 143: unlimited
  | Maximum stacksize for task 144: unlimited
  | Maximum stacksize for task 145: unlimited
  | Maximum stacksize for task 146: unlimited
  | Maximum stacksize for task 147: unlimited
  | Maximum stacksize for task 148: unlimited
  | Maximum stacksize for task 149: unlimited
  | Maximum stacksize for task 150: unlimited
  | Maximum stacksize for task 151: unlimited
  | Maximum stacksize for task 152: unlimited
  | Maximum stacksize for task 153: unlimited
  | Maximum stacksize for task 154: unlimited
  | Maximum stacksize for task 155: unlimited
  | Maximum stacksize for task 156: unlimited
  | Maximum stacksize for task 157: unlimited
  | Maximum stacksize for task 158: unlimited
  | Maximum stacksize for task 159: unlimited
  | Current stacksize for task 0: unlimited
  | Current stacksize for task 1: unlimited
  | Current stacksize for task 2: unlimited
  | Current stacksize for task 3: unlimited
  | Current stacksize for task 4: unlimited
  | Current stacksize for task 5: unlimited
  | Current stacksize for task 6: unlimited
  | Current stacksize for task 7: unlimited
  | Current stacksize for task 8: unlimited
  | Current stacksize for task 9: unlimited
  | Current stacksize for task 10: unlimited
  | Current stacksize for task 11: unlimited
  | Current stacksize for task 12: unlimited
  | Current stacksize for task 13: unlimited
  | Current stacksize for task 14: unlimited
  | Current stacksize for task 15: unlimited
  | Current stacksize for task 16: unlimited
  | Current stacksize for task 17: unlimited
  | Current stacksize for task 18: unlimited
  | Current stacksize for task 19: unlimited
  | Current stacksize for task 20: unlimited
  | Current stacksize for task 21: unlimited
  | Current stacksize for task 22: unlimited
  | Current stacksize for task 23: unlimited
  | Current stacksize for task 24: unlimited
  | Current stacksize for task 25: unlimited
  | Current stacksize for task 26: unlimited
  | Current stacksize for task 27: unlimited
  | Current stacksize for task 28: unlimited
  | Current stacksize for task 29: unlimited
  | Current stacksize for task 30: unlimited
  | Current stacksize for task 31: unlimited
  | Current stacksize for task 32: unlimited
  | Current stacksize for task 33: unlimited
  | Current stacksize for task 34: unlimited
  | Current stacksize for task 35: unlimited
  | Current stacksize for task 36: unlimited
  | Current stacksize for task 37: unlimited
  | Current stacksize for task 38: unlimited
  | Current stacksize for task 39: unlimited
  | Current stacksize for task 40: unlimited
  | Current stacksize for task 41: unlimited
  | Current stacksize for task 42: unlimited
  | Current stacksize for task 43: unlimited
  | Current stacksize for task 44: unlimited
  | Current stacksize for task 45: unlimited
  | Current stacksize for task 46: unlimited
  | Current stacksize for task 47: unlimited
  | Current stacksize for task 48: unlimited
  | Current stacksize for task 49: unlimited
  | Current stacksize for task 50: unlimited
  | Current stacksize for task 51: unlimited
  | Current stacksize for task 52: unlimited
  | Current stacksize for task 53: unlimited
  | Current stacksize for task 54: unlimited
  | Current stacksize for task 55: unlimited
  | Current stacksize for task 56: unlimited
  | Current stacksize for task 57: unlimited
  | Current stacksize for task 58: unlimited
  | Current stacksize for task 59: unlimited
  | Current stacksize for task 60: unlimited
  | Current stacksize for task 61: unlimited
  | Current stacksize for task 62: unlimited
  | Current stacksize for task 63: unlimited
  | Current stacksize for task 64: unlimited
  | Current stacksize for task 65: unlimited
  | Current stacksize for task 66: unlimited
  | Current stacksize for task 67: unlimited
  | Current stacksize for task 68: unlimited
  | Current stacksize for task 69: unlimited
  | Current stacksize for task 70: unlimited
  | Current stacksize for task 71: unlimited
  | Current stacksize for task 72: unlimited
  | Current stacksize for task 73: unlimited
  | Current stacksize for task 74: unlimited
  | Current stacksize for task 75: unlimited
  | Current stacksize for task 76: unlimited
  | Current stacksize for task 77: unlimited
  | Current stacksize for task 78: unlimited
  | Current stacksize for task 79: unlimited
  | Current stacksize for task 80: unlimited
  | Current stacksize for task 81: unlimited
  | Current stacksize for task 82: unlimited
  | Current stacksize for task 83: unlimited
  | Current stacksize for task 84: unlimited
  | Current stacksize for task 85: unlimited
  | Current stacksize for task 86: unlimited
  | Current stacksize for task 87: unlimited
  | Current stacksize for task 88: unlimited
  | Current stacksize for task 89: unlimited
  | Current stacksize for task 90: unlimited
  | Current stacksize for task 91: unlimited
  | Current stacksize for task 92: unlimited
  | Current stacksize for task 93: unlimited
  | Current stacksize for task 94: unlimited
  | Current stacksize for task 95: unlimited
  | Current stacksize for task 96: unlimited
  | Current stacksize for task 97: unlimited
  | Current stacksize for task 98: unlimited
  | Current stacksize for task 99: unlimited
  | Current stacksize for task 100: unlimited
  | Current stacksize for task 101: unlimited
  | Current stacksize for task 102: unlimited
  | Current stacksize for task 103: unlimited
  | Current stacksize for task 104: unlimited
  | Current stacksize for task 105: unlimited
  | Current stacksize for task 106: unlimited
  | Current stacksize for task 107: unlimited
  | Current stacksize for task 108: unlimited
  | Current stacksize for task 109: unlimited
  | Current stacksize for task 110: unlimited
  | Current stacksize for task 111: unlimited
  | Current stacksize for task 112: unlimited
  | Current stacksize for task 113: unlimited
  | Current stacksize for task 114: unlimited
  | Current stacksize for task 115: unlimited
  | Current stacksize for task 116: unlimited
  | Current stacksize for task 117: unlimited
  | Current stacksize for task 118: unlimited
  | Current stacksize for task 119: unlimited
  | Current stacksize for task 120: unlimited
  | Current stacksize for task 121: unlimited
  | Current stacksize for task 122: unlimited
  | Current stacksize for task 123: unlimited
  | Current stacksize for task 124: unlimited
  | Current stacksize for task 125: unlimited
  | Current stacksize for task 126: unlimited
  | Current stacksize for task 127: unlimited
  | Current stacksize for task 128: unlimited
  | Current stacksize for task 129: unlimited
  | Current stacksize for task 130: unlimited
  | Current stacksize for task 131: unlimited
  | Current stacksize for task 132: unlimited
  | Current stacksize for task 133: unlimited
  | Current stacksize for task 134: unlimited
  | Current stacksize for task 135: unlimited
  | Current stacksize for task 136: unlimited
  | Current stacksize for task 137: unlimited
  | Current stacksize for task 138: unlimited
  | Current stacksize for task 139: unlimited
  | Current stacksize for task 140: unlimited
  | Current stacksize for task 141: unlimited
  | Current stacksize for task 142: unlimited
  | Current stacksize for task 143: unlimited
  | Current stacksize for task 144: unlimited
  | Current stacksize for task 145: unlimited
  | Current stacksize for task 146: unlimited
  | Current stacksize for task 147: unlimited
  | Current stacksize for task 148: unlimited
  | Current stacksize for task 149: unlimited
  | Current stacksize for task 150: unlimited
  | Current stacksize for task 151: unlimited
  | Current stacksize for task 152: unlimited
  | Current stacksize for task 153: unlimited
  | Current stacksize for task 154: unlimited
  | Current stacksize for task 155: unlimited
  | Current stacksize for task 156: unlimited
  | Current stacksize for task 157: unlimited
  | Current stacksize for task 158: unlimited
  | Current stacksize for task 159: unlimited
 
  Consistency checks for the contents of control.in are next.
 
  MPI_IN_PLACE appears to work with this MPI implementation.
  | Keeping use_mpi_in_place .true. (see manual).
  Target number of points in a grid batch is not set. Defaulting to  100
  Method for grid partitioning is not set. Defaulting to parallel hash+maxmin partitioning.
  Batch size limit is not set. Defaulting to    200
  By default, will store active basis functions for each batch.
  If in need of memory, prune_basis_once .false. can be used to disable this option.
  communication_type for Hartree potential was not specified.
  Defaulting to calc_hartree .
  Defaulting to Pulay charge density mixer.
  Pulay mixer: Number of relevant iterations not set.
  Defaulting to    8 iterations.
  Pulay mixer: Number of initial linear mixing iterations not set.
  Defaulting to    0 iterations.
  Work space size for distributed Hartree potential not set.
  Defaulting to   0.200000E+03 MB.
  Mixing parameter for charge density mixing has not been set.
  Using default: charge_mix_param =     0.0500.
  The mixing parameter will be adjusted in iteration number     2 of the first full s.c.f. cycle only.
  Algorithm-dependent basis array size parameters:
  | n_max_pulay                         :        8
  Maximum number of self-consistency iterations not provided.
  Presetting  1000 iterations.
  Presetting      1001 iterations before the initial mixing cycle
  is restarted anyway using the sc_init_iter criterion / keyword.
  Presetting a factor      1.000 between actual scf density residual
  and density convergence criterion sc_accuracy_rho below which sc_init_iter
  takes no effect.
 * No s.c.f. convergence criteria (sc_accuracy_*) were provided in control.in.
 * The run will proceed with a reasonable default guess, but please check whether.
 * the s.c.f. cycles seem to take too much or too little time.
  No maximum number of relaxation steps, defaulting to     1000
  Default initial Hessian is Lindh matrix (thres = 15.00) plus  0.200000E+01 eV/A^2 times unity.
  No maximum energy tolerance for TRM/BFGS moves, defaulting to   0.100000E-02
  Maximum energy tolerance by which TRM/BFGS trajectory may increase over multiple steps:   0.300000E-02
  No harmonic length scale. Defaulting to   0.250000E-01 A.
  No trust radius initializer. Defaulting to   0.200000E+00 A.
  Forces evaluation will include force correction term due to incomplete self-consistency (default).
 * Notice: The s.c.f. convergence criterion sc_accuracy_rho was not provided.
 * We used to stop in this case, and ask the user to provide reasonable
 * scf convergence criteria. However, this led some users to employ criteria
 * that led to extremely long run times, e.g., for simple relaxation.
 * We now preset a default value for sc_accuracy_rho if it is not set.
 * You may still wish to check if this setting is too tight or too loose for your needs.
 * Based on n_atoms and forces and force-correction status, FHI-aims chose sc_accuracy_rho =  0.280951E-04 .
  Force calculation: scf convergence accuracy of forces not set.
  Defaulting to 'sc_accuracy_forces not_checked'.
  Handling of forces: Unphysical translation and rotation will be removed from forces.
  No accuracy limit for integral partition fn. given. Defaulting to  0.1000E-14.
  No threshold value for u(r) in integrations given. Defaulting to  0.1000E-05.
  No accuracy for occupation numbers given. Defaulting to  0.1000E-12.
  No threshold value for occupation numbers given. Defaulting to  0.0000E+00.
  No accuracy for fermi level given. Defaulting to  0.1000E-19.
  Maximum # of iterations to find E_F not set. Defaulting to  200.
  Preferred method for the eigenvalue solver ('KS_method') not specified in 'control.in'.
  Calling BLACS routine to test compilation state
  Since ScaLAPACK support is enabled, defaulting to ELPA (via ELSI).
  Will not use alltoall communication since running on < 1024 CPUs.
  Threshold for basis singularities not set.
  Default threshold for basis singularities:  0.1000E-04
  partition_type (choice of integration weights) for integrals was not specified.
  | Using a version of the partition function of Stratmann and coworkers ('stratmann_sparse').
  | At each grid point, the set of atoms used to build the partition table is smoothly restricted to
  | only those atoms whose free-atom density would be non-zero at that grid point.
  Partitioning for Hartree potential was not defined. Using partition_type for integrals.
  | Adjusted default value of keyword multip_moments_threshold to:       0.10000000E-11
  | This value may affect high angular momentum components of the Hartree potential in periodic systems.
  Angular momentum expansion for Kerker preconditioner not set explicitly.
  | Using default value of   0
  No explicit requirement for turning off preconditioner.
  | By default, it will be turned off when the charge convergence reaches
  | sc_accuracy_rho  =   0.280951E-04
  No special mixing parameter while Kerker preconditioner is on.
  Using default: charge_mix_param =     0.0500.
  No q(lm)/r^(l+1) cutoff set for long-range Hartree potential.
  | Using default value of  0.100000E-09 .
  | Verify using the multipole_threshold keyword.
  Defaulting to new monopole extrapolation.
  Density update method: automatic selection selected.
  Using density matrix based charge density update.
  Using density matrix based charge density update.
  Using packed matrix style: index .
  Geometry relaxation: A file "geometry.in.next_step" is written out by default after each step.
  | This file contains the geometry of the current relaxation step as well as
  | the current Hessian matrix needed to restart the relaxation algorithm.
  | If you do not want part or all of this information, use the keywords
  | "write_restart_geometry" or "hessian_to_restart_geometry" to switch the output off.
  Defaulting to use time-reversal symmetry for k-point grid.
  Charge integration errors on the 3D integration grid will be compensated
  by explicit normalization and distribution of residual charges.
  Use the "compensate_multipole_errors" flag to change this behaviour.
 
  Consistency checks for the contents of geometry.in are next.
 

  Range separation radius for Ewald summation (hartree_convergence_parameter):      5.00000000 bohr.
  Structure-dependent array size parameters: 
  | Maximum number of distinct radial functions  :       57
  | Maximum number of basis functions            :     3260
  | Number of Kohn-Sham states (occupied + empty):     2034
------------------------------------------------------------

------------------------------------------------------------
          Preparing all fixed parts of the calculation.
------------------------------------------------------------
  Determining machine precision:
    2.225073858507201E-308
  Setting up grids for atomic and cluster calculations.

  Creating wave function, potential, and density for free atoms.

  Species: S

  List of occupied orbitals and eigenvalues:
    n    l              occ      energy [Ha]    energy [eV]
    1    0           2.0000       -88.680731     -2413.1255
    2    0           2.0000        -7.781719      -211.7513
    3    0           2.0000        -0.633662       -17.2428
    2    1           6.0000        -5.751976      -156.5192
    3    1           4.0000        -0.257086        -6.9957


  Species: Mo

  List of occupied orbitals and eigenvalues:
    n    l              occ      energy [Ha]    energy [eV]
    1    0           2.0000      -745.344654    -20281.8600
    2    0           2.0000      -103.288246     -2810.6162
    3    0           2.0000       -17.516687      -476.6533
    4    0           2.0000        -2.358559       -64.1796
    5    0           1.0000        -0.145159        -3.9500
    2    1           6.0000       -92.308627     -2511.8455
    3    1           6.0000       -13.936005      -379.2180
    4    1           6.0000        -1.408138       -38.3174
    3    2          10.0000        -8.119011      -220.9295
    4    2           5.0000        -0.132984        -3.6187


  Species: W

  List of occupied orbitals and eigenvalues:
    n    l              occ      energy [Ha]    energy [eV]
    1    0           2.0000     -2764.899999    -75236.7570
    2    0           2.0000      -447.822848    -12185.8797
    3    0           2.0000      -101.923634     -2773.4832
    4    0           2.0000       -20.945301      -569.9506
    5    0           2.0000        -2.899582       -78.9016
    6    0           2.0000        -0.207066        -5.6345
    2    1           6.0000      -391.021390    -10640.2334
    3    1           6.0000       -85.417793     -2324.3364
    4    1           6.0000       -15.562838      -423.4864
    5    1           6.0000        -1.582233       -43.0547
    3    2          10.0000       -66.517936     -1810.0451
    4    2          10.0000        -8.758436      -238.3292
    5    2           4.0000        -0.161873        -4.4048
    4    3          14.0000        -1.221948       -33.2509


  Species: Se

  List of occupied orbitals and eigenvalues:
    n    l              occ      energy [Ha]    energy [eV]
    1    0           2.0000      -466.337810    -12689.6975
    2    0           2.0000       -59.202598     -1610.9847
    3    0           2.0000        -7.847116      -213.5309
    4    0           2.0000        -0.634372       -17.2621
    2    1           6.0000       -52.061107     -1416.6548
    3    1           6.0000        -5.620941      -152.9536
    4    1           4.0000        -0.238469        -6.4891
    3    2          10.0000        -1.951949       -53.1152


  Adding cutoff potential to free-atom effective potential.
  Creating fixed part of basis set: Ionic, confined, hydrogenic.
 
  S                    ion:

  List of free ionic orbitals and eigenvalues:
    n    l      energy [Ha]    energy [eV]
    1    0       -89.703778     -2440.9640
    2    0        -8.775428      -238.7916
    3    0        -1.470343       -40.0101
    2    1        -6.747660      -183.6132
    3    1        -1.048627       -28.5346


  List of ionic basis orbitals and eigenvalues:
    n    l      energy [Ha]    energy [eV]    outer radius [A]
    3    2        -0.495605       -13.4861       5.386362
    3    0        -1.470336       -40.0099       3.967934

 
  S                    hydrogenic:
 
  List of hydrogenic basis orbitals: 
    n    l      effective z      eigenvalue [eV]  inner max. [A]     outer max. [A]     outer radius [A]   
    2    1         1.800000       -11.0118           1.168531           1.168531           5.452614
    4    3         7.000000       -41.6672           1.212182           1.212182           5.066981
    4    2         6.200000       -32.6848           0.582121           1.814567           5.386362
    5    4        10.800000       -63.4785           1.227092           1.227092           4.766538
 
 
  Mo                   ion:

  List of free ionic orbitals and eigenvalues:
    n    l      energy [Ha]    energy [eV]
    1    0      -746.048685    -20301.0176
    2    0      -103.980912     -2829.4646
    3    0       -18.206601      -495.4268
    4    0        -3.040545       -82.7374
    2    1       -93.001013     -2530.6863
    3    1       -14.625827      -397.9890
    4    1        -2.084855       -56.7318
    3    2        -8.808854      -239.7011
    4    2        -0.765435       -20.8285


  List of ionic basis orbitals and eigenvalues:
    n    l      energy [Ha]    energy [eV]    outer radius [A]
    5    1        -0.465587       -12.6693       5.456393
    5    0        -0.650331       -17.6964       5.390095

 
  Mo                   hydrogenic:
 
  List of hydrogenic basis orbitals: 
    n    l      effective z      eigenvalue [eV]  inner max. [A]     outer max. [A]     outer radius [A]   
    4    3         8.400000       -60.0010           1.009788           1.009788           4.487018
    3    2         2.800000       -11.8048           1.687401           1.687401           5.456393
    5    4        12.000000       -78.3687           1.100005           1.100005           4.432498
 
 
  W                    ion:

  List of free ionic orbitals and eigenvalues:
    n    l      energy [Ha]    energy [eV]
    1    0     -2765.664016    -75257.5469
    2    0      -448.543169    -12205.4806
    3    0      -102.635476     -2792.8534
    4    0       -21.655379      -589.2728
    5    0        -3.604872       -98.0936
    6    0        -0.752243       -20.4696
    2    1      -391.740682    -10659.8063
    3    1       -86.129333     -2343.6984
    4    1       -16.272893      -442.8080
    5    1        -2.280103       -62.0448
    3    2       -67.229405     -1829.4052
    4    2        -9.468448      -257.6496
    5    2        -0.806537       -21.9470
    4    3        -1.931058       -52.5468


  List of ionic basis orbitals and eigenvalues:
    n    l      energy [Ha]    energy [eV]    outer radius [A]
    6    1        -0.508246       -13.8301       5.434360
    6    0        -0.752227       -20.4691       5.368330

 
  W                    hydrogenic:
 
  List of hydrogenic basis orbitals: 
    n    l      effective z      eigenvalue [eV]  inner max. [A]     outer max. [A]     outer radius [A]   
    4    3         7.800000       -51.7355           1.082252           1.082252           4.692859
    4    2         5.800000       -28.5979           0.616741           1.946131           5.434360
    5    4        12.400000       -83.6803           1.069102           1.069102           4.307971
 
 
  Se                   ion:

  List of free ionic orbitals and eigenvalues:
    n    l      energy [Ha]    energy [eV]
[...]
  Hartree-Fock Energy :          0.000000000 Ha              0.000000000 eV
  X Energy            :     -12076.417218784 Ha        -328616.032322762 eV
  C Energy            :       -192.200961931 Ha          -5230.054276379 eV
  Total XC Energy     :     -12268.618180716 Ha        -333846.086599141 eV
  ------------------------------------ 
  LDA X and C from self-consistent density 
  X Energy LDA        :     -11534.073306660 Ha        -313858.103598710 eV
  C Energy LDA        :       -337.960751757 Ha          -9196.379961959 eV
  ------------------------------------ 
  End decomposition of the XC Energy 
  ------------------------------------ 

------------------------------------------------------------
  Relaxation / MD: End force evaluation.       :  max(cpu_time)    wall_clock(cpu1)
  | Time for this force evaluation             :      118.282 s         118.356 s

------------------------------------------------------------
  Geometry optimization: Attempting to predict improved coordinates.

  Removing unitary transformations (pure translations, rotations) from forces on atoms.
  Atomic forces before filtering:
  | Net force on center of mass :   0.424673E-18  0.539008E-18 -0.196003E-18 eV/A
  Atomic forces after filtering:
  | Net force on center of mass :   0.424673E-18  0.539008E-18 -0.196003E-18 eV/A
  Net remaining forces (excluding translations, rotations) in present geometry:
  || Forces on atoms   || =   0.876907E-03 eV/A.
  Maximum force component is  0.876907E-03 eV/A.
  Present geometry is converged.

------------------------------------------------------------
  Final atomic structure:
                         x [A]             y [A]             z [A]
  lattice_vector        16.44347560        0.00000000        0.00000000
  lattice_vector        -8.22357185       14.23911350        0.00000000
  lattice_vector         0.00000000        0.00000000       99.63748923

            atom         0.03822028        1.02063346        2.72217016  W
            atom         1.66977660        1.93736537        4.44887680  Se
            atom         1.70355497        2.00423320        1.07674190  Se
            atom        -1.59601100        3.87529373        2.71560311  W
            atom         0.02934412        4.84872603        4.42305804  Se
            atom         0.08843897        4.81652747        1.05260329  Se
            atom        -3.25571421        6.71938846        2.68416100  W
            atom        -1.62706793        7.68916352        4.36916476  Se
            atom        -1.62308433        7.66880033        0.97535380  Se
            atom        -4.88666225        9.57265796        2.68425114  W
            atom        -3.23877806       10.51284753        4.37238638  Se
            atom        -3.25937211       10.53750399        0.99190817  Se
            atom        -6.53002079       12.42340984        2.69906587  W
            atom        -4.88869148       13.34161370        4.40951147  Se
            atom        -4.88791513       13.39699153        1.02665309  Se
            atom         3.33265543        1.02337870        2.75691701  W
            atom         4.99627022        1.93299380        4.44938279  Se
            atom         4.95798602        2.01559378        1.08263148  Se
            atom         1.69744839        3.86772491        2.80365468  W
            atom         3.32954865        4.65969169        4.62841138  Se
            atom         3.31696984        5.07889215        1.33922909  Se
            atom         0.00440083        6.73799230        2.68852780  W
            atom         1.78698569        7.55585094        4.17045538  Se
            atom         1.59507795        7.71246732        0.89075598  Se
            atom        -1.61190070        9.57259725        2.66042131  W
            atom         0.06886233       10.48841511        4.32687246  Se
            atom        -0.01425728       10.56187825        0.94811111  Se
            atom        -3.24614566       12.42206513        2.69958255  W
            atom        -1.58977775       13.34606991        4.39145814  Se
            atom        -1.61956244       13.39074397        1.00551805  Se
            atom         6.62670422        1.02028227        2.72107479  W
            atom         8.27744369        1.96984157        4.39804109  Se
            atom         8.25094010        1.98464032        1.02126185  Se
            atom         4.94765716        3.87634682        2.82176449  W
            atom         6.62938903        4.86232826        4.42100905  Se
            atom         6.56133734        4.82304502        1.06026047  Se
            atom         4.88624703        7.58585791        4.16472496  Se
            atom         5.09781932        7.72661490        0.87357091  Se
            atom         1.64515036        9.54380894        2.55646896  W
            atom         3.33554287       10.42873158        4.25250867  Se
            atom         3.33361287       10.51358149        0.91049422  Se
            atom         0.03536910       12.42389985        2.67417465  W
            atom         1.70390698       13.33648746        4.35576787  Se
            atom         1.67526477       13.37663798        0.98140320  Se
            atom         9.90819363        1.02072224        2.69115718  W
            atom        11.55279359        1.96686442        4.37944930  Se
            atom        11.55272170        1.97427573        1.00481189  Se
            atom         8.25327522        3.87881047        2.71654971  W
            atom         9.91466875        4.82938290        4.38549809  Se
            atom         9.89567047        4.81274237        1.00946753  Se
            atom         6.66126709        6.75456455        2.67732466  W
            atom         8.29368013        7.69416196        4.36567480  Se
            atom         8.30125651        7.67408905        0.97241002  Se
            atom         5.03055458        9.55651375        2.55479984  W
            atom         6.60483792       10.49628169        4.32633250  Se
            atom         6.68774062       10.56976672        0.94311006  Se
            atom         3.33082459       12.39459875        2.63819509  W
            atom         4.95906291       13.33554389        4.35492522  Se
            atom         4.98618173       13.37660450        0.98099984  Se
            atom        13.19779762        1.01962466        2.69111134  W
            atom        14.82732278        1.96698683        4.39877598  Se
            atom        14.85452596        1.98110984        1.02123388  Se
            atom        11.55166844        3.87174534        2.69402353  W
            atom        13.18877343        4.82797979        4.38564487  Se
            atom        13.20648833        4.81119304        1.00836429  Se
            atom         9.92477393        6.72188576        2.68430166  W
            atom        11.55643658        7.67618701        4.37728350  Se
            atom        11.55729699        7.67325837        0.99150971  Se
            atom         8.28302467        9.57774973        2.65753231  W
            atom         9.90854722       10.51435707        4.37162974  Se
            atom         9.93171180       10.54023616        0.99038704  Se
            atom         6.63139630       12.42727675        2.67254296  W
            atom         8.25559124       13.34732085        4.39146697  Se
            atom         8.28577121       13.39282013        1.00502310  Se

  Fractional coordinates:
                         L1                L2                L3
       atom_frac         0.03817142        0.07167816        0.02732074  W
       atom_frac         0.16959133        0.13605941        0.04465063  Se
       atom_frac         0.17399410        0.14075548        0.01080659  Se
       atom_frac         0.03904909        0.27215836        0.02725483  W
       atom_frac         0.17208334        0.34052162        0.04439150  Se
       atom_frac         0.17454626        0.33826035        0.01056433  Se
       atom_frac         0.03800662        0.47189654        0.02693927  W
       atom_frac         0.17111256        0.54000297        0.04385061  Se
       atom_frac         0.17063962        0.53857288        0.00978902  Se
       atom_frac         0.03903512        0.67227907        0.02694017  W
       atom_frac         0.17227189        0.73830773        0.04388294  Se
       atom_frac         0.17188547        0.74003933        0.00995517  Se
       atom_frac         0.03922045        0.87248478        0.02708886  W
       atom_frac         0.17128640        0.93696940        0.04425555  Se
       atom_frac         0.17327861        0.94085854        0.01030388  Se
       atom_frac         0.23861691        0.07187096        0.02766947  W
       atom_frac         0.37173648        0.13575240        0.04465571  Se
       atom_frac         0.37230936        0.14155332        0.01086570  Se
       atom_frac         0.23907299        0.27162681        0.02813855  W
       atom_frac         0.36614394        0.32724591        0.04645251  Se
       atom_frac         0.38010228        0.35668598        0.01344102  Se
       atom_frac         0.23692195        0.47320308        0.02698309  W
       atom_frac         0.37405391        0.53064054        0.04185629  Se
       atom_frac         0.36788390        0.54163957        0.00893997  Se
       atom_frac         0.23818562        0.67227480        0.02670101  W
       atom_frac         0.37256591        0.73659186        0.04342615  Se
       atom_frac         0.37009124        0.74175111        0.00951561  Se
       atom_frac         0.23888010        0.87239034        0.02709404  W
       atom_frac         0.37206435        0.93728236        0.04407436  Se
       atom_frac         0.37182207        0.94041978        0.01009176  Se
       atom_frac         0.43883374        0.07165350        0.02730975  W
       atom_frac         0.57257324        0.13834018        0.04414042  Se
       atom_frac         0.57148121        0.13937949        0.01024978  Se
       atom_frac         0.43703529        0.27223231        0.02832031  W
       atom_frac         0.57393881        0.34147689        0.04437094  Se
       atom_frac         0.56842057        0.33871807        0.01064118  Se
       atom_frac         0.56358753        0.53274791        0.04179877  Se
       atom_frac         0.58139789        0.54263314        0.00876749  Se
       atom_frac         0.43525009        0.67025303        0.02565770  W
       atom_frac         0.56913088        0.73240034        0.04267981  Se
       atom_frac         0.57199364        0.73835927        0.00913807  Se
       atom_frac         0.43850787        0.87251920        0.02683904  W
       atom_frac         0.57203123        0.93660939        0.04371615  Se
       atom_frac         0.57169956        0.93942913        0.00984974  Se
       atom_frac         0.63841098        0.07168440        0.02700948  W
       atom_frac         0.77165710        0.13813110        0.04395383  Se
       atom_frac         0.77191303        0.13865159        0.01008468  Se
       atom_frac         0.63815098        0.27240533        0.02726433  W
       atom_frac         0.77257398        0.33916317        0.04401454  Se
       atom_frac         0.77083416        0.33799452        0.01013140  Se
       atom_frac         0.64233729        0.47436693        0.02687066  W
       atom_frac         0.77461240        0.54035400        0.04381558  Se
       atom_frac         0.77436814        0.53894430        0.00975948  Se
       atom_frac         0.64157762        0.67114528        0.02564095  W
       atom_frac         0.77032359        0.73714432        0.04342073  Se
       atom_frac         0.77794624        0.74230511        0.00946541  Se
       atom_frac         0.63788987        0.87046141        0.02647794  W
       atom_frac         0.76995843        0.93654313        0.04370770  Se
       atom_frac         0.77304979        0.93942678        0.00984569  Se
       atom_frac         0.83842770        0.07160731        0.02700902  W
       atom_frac         0.97079990        0.13813970        0.04414780  Se
       atom_frac         0.97295028        0.13913154        0.01024949  Se
       atom_frac         0.83849262        0.27190916        0.02703825  W
       atom_frac         0.97163740        0.33906463        0.04401601  Se
       atom_frac         0.97212513        0.33788571        0.01012033  Se
       atom_frac         0.83965773        0.47207193        0.02694068  W
       atom_frac         0.97240363        0.53909164        0.04393209  Se
       atom_frac         0.97235310        0.53888596        0.00995117  Se
       atom_frac         0.84012048        0.67263666        0.02667201  W
       atom_frac         0.97187152        0.73841374        0.04387535  Se
       atom_frac         0.97418920        0.74023121        0.00993990  Se
       atom_frac         0.83975987        0.87275635        0.02682266  W
       atom_frac         0.97084843        0.93737021        0.04407444  Se
       atom_frac         0.97428185        0.94056559        0.01008680  Se
------------------------------------------------------------

------------------------------------------------------------------------------
  Final output of selected total energy values:

  The following output summarizes some interesting total energy values
  at the end of a run (AFTER all relaxation, molecular dynamics, etc.).

  | Total energy of the DFT / Hartree-Fock s.c.f. calculation      :      -14192154.384368589 eV
  | Final zero-broadening corrected energy (caution - metals only) :      -14192154.384368589 eV
  | For reference only, the value of 1 Hartree used in FHI-aims is :             27.211384500 eV
  | For reference only, the overall average (free atom contribution
  | + realspace contribution) of the electrostatic potential after
  | s.c.f. convergence is                                          :             -1.332456977 eV

  Before relying on these values, please be sure to understand exactly which
  total energy value is referred to by a given number. Different objects may
  all carry the same name 'total energy'. Definitions:

  Total energy of the DFT / Hartree-Fock s.c.f. calculation:
  | Note that this energy does not include ANY quantities calculated after the
  | s.c.f. cycle, in particular not ANY RPA, MP2, etc. many-body perturbation terms.

  Final zero-broadening corrected energy:
  | For metallic systems only, a broadening of the occupation numbers at the Fermi
  | level can be extrapolated back to zero broadening by an electron-gas inspired
  | formula. For all systems that are not real metals, this value can be
  | meaningless and should be avoided.

------------------------------------------------------------------------------
  Methods described in the following list of references were used in this FHI-aims run.
  If you publish the results, please make sure to cite these reference if they apply.
  FHI-aims is an academic code, and for our developers (often, Ph.D. students
  and postdocs), scientific credit in the community is essential.
  Thank you for helping us!

  For any use of FHI-aims, please cite:

    Volker Blum, Ralf Gehrke, Felix Hanke, Paula Havu, Ville Havu,
    Xinguo Ren, Karsten Reuter, and Matthias Scheffler
    'Ab initio molecular simulations with numeric atom-centered orbitals'
    Computer Physics Communications 180, 2175-2196 (2009)
    http://dx.doi.org/10.1016/j.cpc.2009.06.022


  The provided symmetry information was generated with SPGlib:

    Atsushi Togo, Yusuke Seto, Dimitar Pashov
    SPGlib 1.7.3 obtained from http://spglib.sourceforge.net
    Copyright (C) 2008 Atsushi Togo


  The ELSI infrastructure was used in your run to solve the Kohn-Sham electronic structure.
  Please check out http://elsi-interchange.org to learn more.
  If scalability is important for your project, please acknowledge ELSI by citing:

    V. W-z. Yu, F. Corsetti, A. Garcia, W. P. Huhn, M. Jacquelin, W. Jia,
    B. Lange, L. Lin, J. Lu, W. Mi, A. Seifitokaldani, A. Vazquez-Mayagoitia,
    C. Yang, H. Yang, and V. Blum
    'ELSI: A unified software interface for Kohn-Sham electronic structure solvers'
    Computer Physics Communications 222, 267-285 (2018).
    http://dx.doi.org/10.1016/j.cpc.2017.09.007


  For the real-space grid partitioning and parallelization used in this calculation, please cite:

    Ville Havu, Volker Blum, Paula Havu, and Matthias Scheffler,
    'Efficient O(N) integration for all-electron electronic structure calculation'
    'using numerically tabulated basis functions'
    Journal of Computational Physics 228, 8367-8379 (2009).
    http://dx.doi.org/10.1016/j.jcp.2009.08.008

  Of course, there are many other important community references, e.g., those cited in the
  above references. Our list is limited to references that describe implementations in the
  FHI-aims code. The reason is purely practical (length of this list) - please credit others as well.

------------------------------------------------------------
          Leaving FHI-aims.
          Date     :  20220107, Time     :  230315.449

          Computational steps:
          | Number of self-consistency cycles          :           84
          | Number of SCF (re)initializations          :            9
          | Number of relaxation steps                 :            8

          Detailed time accounting                     :  max(cpu_time)    wall_clock(cpu1)
          | Total time                                 :     1178.413 s        1180.291 s
          | Preparation time                           :        1.303 s           1.443 s
          | Boundary condition initalization           :        9.236 s           9.247 s
          | Grid partitioning                          :       15.132 s          15.140 s
          | Preloading free-atom quantities on grid    :        5.770 s           5.784 s
          | Free-atom superposition energy             :        0.802 s           0.803 s
          | Total time for integrations                :      167.629 s         167.662 s
          | Total time for solution of K.-S. equations :       53.096 s          53.196 s
          | Total time for EV reorthonormalization     :        1.753 s           1.729 s
          | Total time for density & force components  :      572.472 s         572.691 s
          | Total time for mixing & preconditioning    :       31.508 s          31.495 s
          | Total time for Hartree multipole update    :        1.101 s           1.101 s
          | Total time for Hartree multipole sum       :      229.918 s         229.996 s
          | Total time for total energy evaluation     :        0.138 s           0.072 s
          | Total time NSC force correction            :       35.970 s          35.984 s
          | Total time for scaled ZORA corrections     :        0.000 s           0.000 s
          | Total time for vdW correction              :       41.649 s          41.733 s

          Partial memory accounting:
          | Residual value for overall tracked memory usage across tasks:     0.000000 MB (should be 0.000000 MB)
          | Peak values for overall tracked memory usage:
          |   Minimum:      131.227 MB (on task 114 after allocating temp_ham_ovlp)
          |   Maximum:      131.744 MB (on task   0 after allocating temp_ham_ovlp)
          |   Average:      131.524 MB
          | Largest tracked array allocation:
          |   Minimum:       36.919 MB (hamiltonian on task   0)
          |   Maximum:       36.919 MB (hamiltonian on task   0)
          |   Average:       36.919 MB
          Note:  These values currently only include a subset of arrays which are explicitly tracked.
          The "true" memory usage will be greater.

          Have a nice day.
------------------------------------------------------------
