------------------------------------------------------------
          Invoking FHI-aims ...

          When using FHI-aims, please cite the following reference:

            Volker Blum, Ralf Gehrke, Felix Hanke, Paula Havu,
            Ville Havu, Xinguo Ren, Karsten Reuter, and Matthias Scheffler,
            'Ab Initio Molecular Simulations with Numeric Atom-Centered Orbitals',
            Computer Physics Communications 180, 2175-2196 (2009)

          In addition, many other developments in FHI-aims are likely important for
          your particular application. A partial list of references is given at the end of
          this file. Thank you for giving credit to the authors of these developments.

          For any questions about FHI-aims, please visit our slack channel at

            https://fhi-aims.slack.com

          and our main development and support site at

            https://aims-git.rz-berlin.mpg.de .

          The latter site, in particular, has a wiki to collect information, as well
          as an issue tracker to log discussions, suggest improvements, and report issues
          or bugs. https://aims-git.rz-berlin.mpg.de is also the main development site
          of the project and all new and updated code versions can be obtained there.
          Please send an email to aims-coordinators@fhi-berlin.mpg.de and we will add
          you to these sites. They are for you and everyone is welcome there.

------------------------------------------------------------



  Date     :  20210628, Time     :  160455.190
  Time zero on CPU 1             :   0.551370000000000E-01  s.
  Internal wall clock time zero  :           394128295.190  s.

  FHI-aims created a unique identifier for this run for later identification
  aims_uuid : 46255FE0-FB71-4486-AE1B-E2269BAA71ED

  Build configuration of the current instance of FHI-aims
  -------------------------------------------------------
  FHI-aims version      : 210513
  Commit number         : 300bfe3f4
  CMake host system     : Linux-4.12.14-122.63-default
  CMake version         : 3.5.2
  Fortran compiler      : /mpcdf/soft/SLE_12/packages/x86_64/intel_parallel_studio/2020.1/compilers_and_libraries_2020.1.217/linux/mpi/intel64/bin/mpiifort (Intel) version 19.1.0.20200306
  Fortran compiler flags: -O3 -ip -fp-model precise
  C compiler            : /mpcdf/soft/SLE_12/packages/x86_64/intel/19.1.1/bin/icc (Intel) version 19.1.0.20200306
  C compiler flags      : -O3 -ip -fp-model precise -std=gnu99
  C++ compiler          : /mpcdf/soft/SLE_12/packages/x86_64/intel/19.1.1/bin/icpc (Intel) version 19.1.0.20200306
  C++ compiler flags    : -O3 -ip -fp-model precise -std=gnu99
  Using MPI
  Using ScaLAPACK
  Using LibXC
  Using i-PI
  Using RLSY
  Linking against: /mpcdf/soft/SLE_12/packages/x86_64/intel_parallel_studio/2020.1/mkl/lib/intel64/libmkl_intel_lp64.so
                   /mpcdf/soft/SLE_12/packages/x86_64/intel_parallel_studio/2020.1/mkl/lib/intel64/libmkl_sequential.so
                   /mpcdf/soft/SLE_12/packages/x86_64/intel_parallel_studio/2020.1/mkl/lib/intel64/libmkl_core.so
                   /mpcdf/soft/SLE_12/packages/x86_64/intel_parallel_studio/2020.1/mkl/lib/intel64/libmkl_blacs_intelmpi_lp64.so
                   /mpcdf/soft/SLE_12/packages/x86_64/intel_parallel_studio/2020.1/mkl/lib/intel64/libmkl_scalapack_lp64.so

  Using       40 parallel tasks.
  Task        0 on host co2258 reporting.
  Task        1 on host co2258 reporting.
  Task        2 on host co2258 reporting.
  Task        3 on host co2258 reporting.
  Task        4 on host co2258 reporting.
  Task        5 on host co2258 reporting.
  Task        6 on host co2258 reporting.
  Task        7 on host co2258 reporting.
  Task        8 on host co2258 reporting.
  Task        9 on host co2258 reporting.
  Task       10 on host co2258 reporting.
  Task       11 on host co2258 reporting.
  Task       12 on host co2258 reporting.
  Task       13 on host co2258 reporting.
  Task       14 on host co2258 reporting.
  Task       15 on host co2258 reporting.
  Task       16 on host co2258 reporting.
  Task       17 on host co2258 reporting.
  Task       18 on host co2258 reporting.
  Task       19 on host co2258 reporting.
  Task       20 on host co2258 reporting.
  Task       21 on host co2258 reporting.
  Task       22 on host co2258 reporting.
  Task       23 on host co2258 reporting.
  Task       24 on host co2258 reporting.
  Task       25 on host co2258 reporting.
  Task       26 on host co2258 reporting.
  Task       27 on host co2258 reporting.
  Task       28 on host co2258 reporting.
  Task       29 on host co2258 reporting.
  Task       30 on host co2258 reporting.
  Task       31 on host co2258 reporting.
  Task       32 on host co2258 reporting.
  Task       33 on host co2258 reporting.
  Task       34 on host co2258 reporting.
  Task       35 on host co2258 reporting.
  Task       36 on host co2258 reporting.
  Task       37 on host co2258 reporting.
  Task       38 on host co2258 reporting.
  Task       39 on host co2258 reporting.

  Performing system and environment tests:
  | Environment variable OMP_NUM_THREADS correctly set to 1.
  | Checking for ScaLAPACK...
  | Testing pdtran()...
  | All pdtran() tests passed.

  Obtaining array dimensions for all initial allocations:
  
  -----------------------------------------------------------------------
  Parsing control.in (first pass over file, find array dimensions only).
  The contents of control.in will be repeated verbatim below
  unless switched off by setting 'verbatim_writeout .false.' .
  in the first line of control.in .
  -----------------------------------------------------------------------
  
  ##### Physical settings  ################
  xc                 pbe
  spin               none
  charge      0.0
  relativistic       atomic_zora scalar
  #elsi_restart read
  # SCF settings
  #########relax_geometry trm 1E-3
  
  #vdw_correction_hirshfeld
  # k-grid settings  (to be adjusted)
  #empty_states 8
  #use_dipole_correction
  #include_spin_orbit non_self_consistent
  
  mixer   pulay
  n_max_pulay        12 # high for metal
  charge_mix_param   0.1 #low for metal
  #many_body_dispersion_nl    beta=0.81 do_rpa=.true. rpa_rescale_eigs=.true. parallel_mode=k_points
  ################################################################################
  #
  #  FHI-aims code project
  # Volker Blum, Fritz Haber Institute Berlin, 2009
  #
  #  Suggested "tight" defaults for S atom (to be pasted into control.in file)
  #
  #  Revised Jan 04, 2011, following tests (SiC) done by Lydia Nemec:
  #     d and g functions of tier 2 now enabled by default.
  #
  ################################################################################
    species        S
  #     global species definitions
      nucleus             16
      mass                32.065
  #
      l_hartree           6
  #
      cut_pot             4.0          2.0  1.0
      basis_dep_cutoff    1e-4
  #
      radial_base         44 7.0
      radial_multiplier   2
      angular_grids       specified
        division   0.4665  110
        division   0.5810  194
        division   0.7139  302
        division   0.8274  434
  #      division   0.9105  590
  #      division   1.0975  770
  #      division   1.2028  974
  #      outer_grid  974
        outer_grid  434
  ################################################################################
  #
  #  Definition of "minimal" basis
  #
  ################################################################################
  #     valence basis states
      valence      3  s   2.
      valence      3  p   4.
  #     ion occupancy
      ion_occ      3  s   1.
      ion_occ      3  p   3.
  ################################################################################
  #
  #  Suggested additional basis functions. For production calculations,
  #  uncomment them one after another (the most important basis functions are
  #  listed first).
  #
  #  Constructed for dimers: 1.6 A, 1.9 A, 2.5 A, 3.25 A, 4.0 A
  #
  ################################################################################
  #  "First tier" - improvements: -652.81 meV to -45.53 meV
       ionic 3 d auto
       hydro 2 p 1.8
       hydro 4 f 7
       ionic 3 s auto
  #  "Second tier" - improvements: -30.20 meV to -1.74 meV
       hydro 4 d 6.2
       hydro 5 g 10.8
  #     hydro 4 p 4.9
  #     hydro 5 f 10
  #     hydro 1 s 0.8
  #  "Third tier" - improvements: -1.04 meV to -0.20 meV
  #     hydro 3 d 3.9
  #     hydro 3 d 2.7
  #     hydro 5 g 12
  #     hydro 4 p 10.4
  #     hydro 5 f 12.4
  #     hydro 2 s 1.9
  #  "Fourth tier" - improvements: -0.35 meV to -0.06 meV
  #     hydro 4 d 10.4
  #     hydro 4 p 7.2
  #     hydro 4 d 10
  #     hydro 5 g 19.2
  #     hydro 4 s 12
  
  ################################################################################
  #
  # For methods that use the localized form of the "resolution of identity" for
  # the two-electron Coulomb operator (RI_method LVL), particularly Hartree-Fock and
  # hybrid density functional calculations, the highest accuracy can be obtained by
  # uncommenting the line beginning with "for_aux"  below, thus adding an extra g radial
  # function to the construction of the product basis set for the expansion.
  # See Ref. New J. Phys. 17, 093020 (2015) for more information, particularly Figs. 1 and 6.
  #
  ################################################################################
  #
  # for_aux hydro 5 g 6.0
  ################################################################################
  #
  #  FHI-aims code project
  # Volker Blum, Fritz Haber Institute Berlin, 2009
  #
  #  Suggested "tight" defaults for Mo atom (to be pasted into control.in file)
  #
  ################################################################################
    species        Mo
  #     global species definitions
      nucleus             42
      mass                95.94
  #
      l_hartree           6
  #
      cut_pot             4.0  2.0  1.0
      basis_dep_cutoff    1e-4
  #
      radial_base         59 7.0
      radial_multiplier   2
      angular_grids specified
        division   0.3117   50
        division   0.6750  110
        division   1.0351  194
        division   1.2073  302
        division   1.6402  434
  #      division   1.9185  590
  #      division   2.0237  770
  #      division   2.0980  974
  #      division   2.7972 1202
  #      outer_grid  974
        outer_grid  434
  ################################################################################
  #
  #  Definition of "minimal" basis
  #
  ################################################################################
  #     valence basis states
      valence      5  s   1.
      valence      4  p   6.
      valence      4  d   5.
  #     ion occupancy
      ion_occ     5  s   0.
      ion_occ     4  p   6.
      ion_occ     4  d   4.
  ################################################################################
  #
  #  Suggested additional basis functions. For production calculations,
  #  uncomment them one after another (the most important basis functions are
  #  listed first).
  #
  #  Constructed for dimers: 1.675 A, 1.9 A, 2.375 A, 3.00 A, 4.00 A
  #
  ################################################################################
  #  "First tier"  - max. impr. -711.23  meV, min. impr. -21.07 meV
       hydro 4 f 8.4
       hydro 3 d 2.8
       ionic 5 p auto
       hydro 5 g 12
       ionic 5 s auto
  #  "Second tier" - max. impr. -39.38  meV, min. impr. -2.68 meV
  #     hydro 4 f 12.4
  #     hydro 3 d 3.3
  #     hydro 6 h 17.2
  #     hydro 4 f 7.6
  #     hydro 3 p 3.0
  #     hydro 1 s 0.65
  #  "Third tier"  - max. impr. -5.50 meV, min. impr. -0.47 meV
  #     hydro 4 f 29.2
  #     hydro 5 g 11.2
  #     hydro 3 d 6.8
  #     hydro 6 h 14.8
  #     hydro 2 p 2.3
  #     hydro 4 s 3.8
  #  "Fourth tier"  - max. impr. -0.58 meV, min. impr. -0.19 meV
  #     hydro 5 f 6.8
  #     hydro 5 d 14.8
  #     hydro 6 s 7.8
  #     hydro 5 g 20.8
  #     hydro 5 d 10.4
  #     hydro 5 p 9.8
  #  Further functions - -0.17 meV and below
  #     hydro 5 d 3.2
  compute_forces .true.
  final_forces_cleaned .true.
  
  -----------------------------------------------------------------------
  Completed first pass over input file control.in .
  -----------------------------------------------------------------------
  
  
  -----------------------------------------------------------------------
  Parsing geometry.in (first pass over file, find array dimensions only).
  The contents of geometry.in will be repeated verbatim below
  unless switched off by setting 'verbatim_writeout .false.' .
  in the first line of geometry.in .
  -----------------------------------------------------------------------
  
  #
  # temporary structure-file for finite-difference calculation of forces
  # displacement  -0.0025 of \# atom     1 direction     1
  #
  atom    2.27440633    5.75999413    7.68131618   S
  atom    2.42735398    7.58437017    6.72038194   S
  atom    0.99871951    8.87882463    7.47815803   S
  atom   -0.65263509    8.87882678    6.23034087   S
  atom   -1.92833396    5.76000217    6.02718462   S
  atom   -0.80558319    4.46810248    7.19101927   S
  atom    1.15164835    4.46809954    6.51748154   S
  atom   -2.08127592    7.58688011    6.98811755   S
  
  -----------------------------------------------------------------------
  Completed first pass over input file geometry.in .
  -----------------------------------------------------------------------
  

  Basic array size parameters:
  | Number of species                 :        2
  | Number of atoms                   :        8
  | Max. basis fn. angular momentum   :        4
  | Max. atomic/ionic basis occupied n:        5
  | Max. number of basis fn. types    :        3
  | Max. radial fns per species/type  :       10
  | Max. logarithmic grid size        :     1436
  | Max. radial integration grid size :      119
  | Max. angular integration grid size:      434
  | Max. angular grid division number :        8
  | Radial grid for Hartree potential :     1436
  | Number of spin channels           :        1

------------------------------------------------------------
          Reading file control.in.
------------------------------------------------------------
  XC: Using PBE gradient-corrected functionals.
  Spin treatment: No spin polarisation.
  Charge =   0.000000E+00: Neutral system requested explicitly.
  Scalar relativistic treatment of kinetic energy: on-site free-atom approximation to ZORA.
  Using pulay charge density mixing.
  Pulay mixing - number of memorized iterations:   12
  Charge density mixing - mixing parameter:     0.1000
 
  Reading configuration options for species S                   .
  | Found nuclear charge :  16.0000
  | Found atomic mass :    32.0650000000000      amu
  | Found l_max for Hartree potential  :   6
  | Found cutoff potl. onset [A], width [A], scale factor :    4.00000    2.00000    1.00000
  | Threshold for basis-dependent cutoff potential is   0.100000E-03
  | Found data for basic radial integration grid :    44 points, outermost radius =    7.000 A
  | Found multiplier for basic radial grid :   2
  | Found angular grid specification: user-specified.
  | Specified grid contains     5 separate shells.
  | Check grid settings after all constraints further below.
  | Found free-atom valence shell :  3 s   2.000
  | Found free-atom valence shell :  3 p   4.000
  | Found free-ion valence shell :  3 s   1.000
  | Found free-ion valence shell :  3 p   3.000
  | Found ionic basis function :  3 d , default cutoff radius.
  | Found hydrogenic basis function :  2 p   1.800
  | Found hydrogenic basis function :  4 f   7.000
  | Found ionic basis function :  3 s , default cutoff radius.
  | Found hydrogenic basis function :  4 d   6.200
  | Found hydrogenic basis function :  5 g  10.800
  Species S                   : Missing cutoff potential type.
  Defaulting to exp(1/x)/(1-x)^2 type cutoff potential.
  Species S : No 'logarithmic' tag. Using default grid for free atom:
  | Default logarithmic grid data [bohr] : 0.1000E-03 0.1000E+03 0.1012E+01
  | Will include ionic basis functions of  2.0-fold positive S                    ion.
  Species S : On-site basis accuracy parameter (for Gram-Schmidt orthonormalisation) not specified.
  Using default value basis_acc =  0.1000000E-03.
  Species S                   : Using default innermost maximum threshold i_radial=  2 for radial functions.
  Species S                   : Default cutoff onset for free atom density etc. : 0.40000000E+01 AA.
  Species S                   : Basic radial grid will be enhanced according to radial_multiplier =   2, to contain    89 grid points.
 
  Reading configuration options for species Mo                  .
  | Found nuclear charge :  42.0000
  | Found atomic mass :    95.9400000000000      amu
  | Found l_max for Hartree potential  :   6
  | Found cutoff potl. onset [A], width [A], scale factor :    4.00000    2.00000    1.00000
  | Threshold for basis-dependent cutoff potential is   0.100000E-03
  | Found data for basic radial integration grid :    59 points, outermost radius =    7.000 A
  | Found multiplier for basic radial grid :   2
  | Found angular grid specification: user-specified.
  | Specified grid contains     6 separate shells.
  | Check grid settings after all constraints further below.
  | Found free-atom valence shell :  5 s   1.000
  | Found free-atom valence shell :  4 p   6.000
  | Found free-atom valence shell :  4 d   5.000
  | Found free-ion valence shell :  5 s   0.000
  | Found free-ion valence shell :  4 p   6.000
  | Found free-ion valence shell :  4 d   4.000
  | Found hydrogenic basis function :  4 f   8.400
  | Found hydrogenic basis function :  3 d   2.800
  | Found ionic basis function :  5 p , default cutoff radius.
  | Found hydrogenic basis function :  5 g  12.000
  | Found ionic basis function :  5 s , default cutoff radius.
  Species Mo                  : Missing cutoff potential type.
  Defaulting to exp(1/x)/(1-x)^2 type cutoff potential.
  Species Mo: No 'logarithmic' tag. Using default grid for free atom:
  | Default logarithmic grid data [bohr] : 0.1000E-03 0.1000E+03 0.1012E+01
  | Will include ionic basis functions of  2.0-fold positive Mo                   ion.
  Species Mo: On-site basis accuracy parameter (for Gram-Schmidt orthonormalisation) not specified.
  Using default value basis_acc =  0.1000000E-03.
  Species Mo                  : Using default innermost maximum threshold i_radial=  2 for radial functions.
  Species Mo                  : Default cutoff onset for free atom density etc. : 0.40000000E+01 AA.
  Species Mo                  : Basic radial grid will be enhanced according to radial_multiplier =   2, to contain   119 grid points.
  Forces will be computed.
  Cleaning forces before final output.
 
  Finished reading input file 'control.in'.
 
------------------------------------------------------------


------------------------------------------------------------
          Reading geometry description geometry.in.
------------------------------------------------------------
  | The smallest distance between any two atoms is         2.06764009 AA.
  | The first atom of this pair is atom number                      1 .
  | The second atom of this pair is atom number                     2 .
  Input structure read successfully.
  The structure contains        8 atoms,  and a total of        128.000 electrons.

  Input geometry:
  | No unit cell requested.
  | Atomic structure:
  |       Atom                x [A]            y [A]            z [A]
  |    1: Species S             2.27440633        5.75999413        7.68131618
  |    2: Species S             2.42735398        7.58437017        6.72038194
  |    3: Species S             0.99871951        8.87882463        7.47815803
  |    4: Species S            -0.65263509        8.87882678        6.23034087
  |    5: Species S            -1.92833396        5.76000217        6.02718462
  |    6: Species S            -0.80558319        4.46810248        7.19101927
  |    7: Species S             1.15164835        4.46809954        6.51748154
  |    8: Species S            -2.08127592        7.58688011        6.98811755

 
  Finished reading input file 'control.in'.
 

------------------------------------------------------------
          Reading geometry description geometry.in.
------------------------------------------------------------
 
  Consistency checks for stacksize environment parameter are next.
 
  | Maximum stacksize for task 0: unlimited
  | Maximum stacksize for task 1: unlimited
  | Maximum stacksize for task 2: unlimited
  | Maximum stacksize for task 3: unlimited
  | Maximum stacksize for task 4: unlimited
  | Maximum stacksize for task 5: unlimited
  | Maximum stacksize for task 6: unlimited
  | Maximum stacksize for task 7: unlimited
  | Maximum stacksize for task 8: unlimited
  | Maximum stacksize for task 9: unlimited
  | Maximum stacksize for task 10: unlimited
  | Maximum stacksize for task 11: unlimited
  | Maximum stacksize for task 12: unlimited
  | Maximum stacksize for task 13: unlimited
  | Maximum stacksize for task 14: unlimited
  | Maximum stacksize for task 15: unlimited
  | Maximum stacksize for task 16: unlimited
  | Maximum stacksize for task 17: unlimited
  | Maximum stacksize for task 18: unlimited
  | Maximum stacksize for task 19: unlimited
  | Maximum stacksize for task 20: unlimited
  | Maximum stacksize for task 21: unlimited
  | Maximum stacksize for task 22: unlimited
  | Maximum stacksize for task 23: unlimited
  | Maximum stacksize for task 24: unlimited
  | Maximum stacksize for task 25: unlimited
  | Maximum stacksize for task 26: unlimited
  | Maximum stacksize for task 27: unlimited
  | Maximum stacksize for task 28: unlimited
  | Maximum stacksize for task 29: unlimited
  | Maximum stacksize for task 30: unlimited
  | Maximum stacksize for task 31: unlimited
  | Maximum stacksize for task 32: unlimited
  | Maximum stacksize for task 33: unlimited
  | Maximum stacksize for task 34: unlimited
  | Maximum stacksize for task 35: unlimited
  | Maximum stacksize for task 36: unlimited
  | Maximum stacksize for task 37: unlimited
  | Maximum stacksize for task 38: unlimited
  | Maximum stacksize for task 39: unlimited
  | Current stacksize for task 0: unlimited
  | Current stacksize for task 1: unlimited
  | Current stacksize for task 2: unlimited
  | Current stacksize for task 3: unlimited
  | Current stacksize for task 4: unlimited
  | Current stacksize for task 5: unlimited
  | Current stacksize for task 6: unlimited
  | Current stacksize for task 7: unlimited
  | Current stacksize for task 8: unlimited
  | Current stacksize for task 9: unlimited
  | Current stacksize for task 10: unlimited
  | Current stacksize for task 11: unlimited
  | Current stacksize for task 12: unlimited
  | Current stacksize for task 13: unlimited
  | Current stacksize for task 14: unlimited
  | Current stacksize for task 15: unlimited
  | Current stacksize for task 16: unlimited
  | Current stacksize for task 17: unlimited
  | Current stacksize for task 18: unlimited
  | Current stacksize for task 19: unlimited
  | Current stacksize for task 20: unlimited
  | Current stacksize for task 21: unlimited
  | Current stacksize for task 22: unlimited
  | Current stacksize for task 23: unlimited
  | Current stacksize for task 24: unlimited
  | Current stacksize for task 25: unlimited
  | Current stacksize for task 26: unlimited
  | Current stacksize for task 27: unlimited
  | Current stacksize for task 28: unlimited
  | Current stacksize for task 29: unlimited
  | Current stacksize for task 30: unlimited
  | Current stacksize for task 31: unlimited
  | Current stacksize for task 32: unlimited
  | Current stacksize for task 33: unlimited
  | Current stacksize for task 34: unlimited
  | Current stacksize for task 35: unlimited
  | Current stacksize for task 36: unlimited
  | Current stacksize for task 37: unlimited
  | Current stacksize for task 38: unlimited
  | Current stacksize for task 39: unlimited
 
  Consistency checks for the contents of control.in are next.
 
  MPI_IN_PLACE appears to work with this MPI implementation.
  | Keeping use_mpi_in_place .true. (see manual).
  Target number of points in a grid batch is not set. Defaulting to  100
  Method for grid partitioning is not set. Defaulting to parallel hash+maxmin partitioning.
  Batch size limit is not set. Defaulting to    200
  By default, will store active basis functions for each batch.
  If in need of memory, prune_basis_once .false. can be used to disable this option.
  communication_type for Hartree potential was not specified.
  Defaulting to calc_hartree .
  Pulay mixer: Number of initial linear mixing iterations not set.
  Defaulting to    0 iterations.
  Work space size for distributed Hartree potential not set.
  Defaulting to   0.200000E+03 MB.
  Algorithm-dependent basis array size parameters:
  | n_max_pulay                         :       12
  Maximum number of self-consistency iterations not provided.
  Presetting  1000 iterations.
  Presetting      1001 iterations before the initial mixing cycle
  is restarted anyway using the sc_init_iter criterion / keyword.
  Presetting a factor      1.000 between actual scf density residual
  and density convergence criterion sc_accuracy_rho below which sc_init_iter
  takes no effect.
 * No s.c.f. convergence criteria (sc_accuracy_*) were provided in control.in.
 * The run will proceed with a reasonable default guess, but please check whether.
 * the s.c.f. cycles seem to take too much or too little time.
  Geometry relaxation not requested: no relaxation will be performed.
  Forces evaluation will include force correction term due to incomplete self-consistency (default).
 * Notice: The s.c.f. convergence criterion sc_accuracy_rho was not provided.
 * We used to stop in this case, and ask the user to provide reasonable
 * scf convergence criteria. However, this led some users to employ criteria
 * that led to extremely long run times, e.g., for simple relaxation.
 * We now preset a default value for sc_accuracy_rho if it is not set.
 * You may still wish to check if this setting is too tight or too loose for your needs.
 * Based on n_atoms and forces and force-correction status, FHI-aims chose sc_accuracy_rho =  0.923760E-05 .
  Force calculation: scf convergence accuracy of forces not set.
  Defaulting to 'sc_accuracy_forces not_checked'.
  Handling of forces: Unphysical translation and rotation will be removed from forces.
  No accuracy limit for integral partition fn. given. Defaulting to  0.1000E-14.
  No threshold value for u(r) in integrations given. Defaulting to  0.1000E-05.
  No occupation type (smearing scheme) given. Defaulting to Gaussian broadening, width =  0.1000E-01 eV.
  The width will be adjusted in iteration number     2 of the first full s.c.f. cycle only.
  S.C.F. convergence parameters will be adjusted in iteration number     2 of the first full s.c.f. cycle only.
  No accuracy for occupation numbers given. Defaulting to  0.1000E-12.
  No threshold value for occupation numbers given. Defaulting to  0.0000E+00.
  No accuracy for fermi level given. Defaulting to  0.1000E-19.
  Maximum # of iterations to find E_F not set. Defaulting to  200.
  Preferred method for the eigenvalue solver ('KS_method') not specified in 'control.in'.
  Calling BLACS routine to test compilation state
  Since ScaLAPACK support is enabled, defaulting to ELPA (via ELSI).
  Will not use alltoall communication since running on < 1024 CPUs.
  Threshold for basis singularities not set.
  Default threshold for basis singularities:  0.1000E-04
  partition_type (choice of integration weights) for integrals was not specified.
  | Using a version of the partition function of Stratmann and coworkers ('stratmann_sparse').
  | At each grid point, the set of atoms used to build the partition table is smoothly restricted to
  | only those atoms whose free-atom density would be non-zero at that grid point.
  Partitioning for Hartree potential was not defined. Using partition_type for integrals.
  | Adjusted default value of keyword multip_moments_threshold to:       0.10000000E-11
  | This value may affect high angular momentum components of the Hartree potential in periodic systems.
  No q(lm)/r^(l+1) cutoff set for long-range Hartree potential.
  | Using default value of  0.100000E-09 .
  | Verify using the multipole_threshold keyword.
  Defaulting to new monopole extrapolation.
  Density update method: automatic selection selected.
  Charge integration errors on the 3D integration grid will be compensated
  by explicit normalization and distribution of residual charges.
  Use the "compensate_multipole_errors" flag to change this behaviour.
  Set 'collect_eigenvectors' to be '.true.' for use_density_matrix .false.
 
  Consistency checks for the contents of geometry.in are next.
 
  Number of empty states per atom not set in control.in - providing a guess from actual geometry.
  | Total number of empty states used during s.c.f. cycle:       24
  If you use a very high smearing, use empty_states (per atom!) in control.in to increase this value.

  Structure-dependent array size parameters: 
  | Maximum number of distinct radial functions  :       26
  | Maximum number of basis functions            :      312
  | Number of Kohn-Sham states (occupied + empty):       88
------------------------------------------------------------

------------------------------------------------------------
          Preparing all fixed parts of the calculation.
------------------------------------------------------------
  Determining machine precision:
    2.225073858507201E-308
  Setting up grids for atomic and cluster calculations.

  Creating wave function, potential, and density for free atoms.

  Species: S

  List of occupied orbitals and eigenvalues:
    n    l              occ      energy [Ha]    energy [eV]
    1    0           2.0000       -88.680731     -2413.1255
    2    0           2.0000        -7.781719      -211.7513
    3    0           2.0000        -0.633662       -17.2428
    2    1           6.0000        -5.751976      -156.5192
    3    1           4.0000        -0.257086        -6.9957


  Species: Mo

  List of occupied orbitals and eigenvalues:
    n    l              occ      energy [Ha]    energy [eV]
    1    0           2.0000      -745.344654    -20281.8600
    2    0           2.0000      -103.288246     -2810.6162
    3    0           2.0000       -17.516687      -476.6533
    4    0           2.0000        -2.358559       -64.1796
    5    0           1.0000        -0.145159        -3.9500
    2    1           6.0000       -92.308627     -2511.8455
    3    1           6.0000       -13.936005      -379.2180
    4    1           6.0000        -1.408138       -38.3174
    3    2          10.0000        -8.119011      -220.9295
    4    2           5.0000        -0.132984        -3.6187


  Adding cutoff potential to free-atom effective potential.
  Creating fixed part of basis set: Ionic, confined, hydrogenic.
 
  S                    ion:

  List of free ionic orbitals and eigenvalues:
    n    l      energy [Ha]    energy [eV]
    1    0       -89.703778     -2440.9640
    2    0        -8.775428      -238.7916
    3    0        -1.470343       -40.0101
    2    1        -6.747660      -183.6132
    3    1        -1.048627       -28.5346


  List of ionic basis orbitals and eigenvalues:
    n    l      energy [Ha]    energy [eV]    outer radius [A]
    3    2        -0.495605       -13.4861       5.386362
    3    0        -1.470336       -40.0099       3.967934

 
  S                    hydrogenic:
 
  List of hydrogenic basis orbitals: 
    n    l      effective z      eigenvalue [eV]  inner max. [A]     outer max. [A]     outer radius [A]   
    2    1         1.800000       -11.0118           1.168531           1.168531           5.452614
    4    3         7.000000       -41.6672           1.212182           1.212182           5.066981
    4    2         6.200000       -32.6848           0.582121           1.814567           5.386362
    5    4        10.800000       -63.4785           1.227092           1.227092           4.766538
 
 
  Mo                   ion:

  List of free ionic orbitals and eigenvalues:
    n    l      energy [Ha]    energy [eV]
    1    0      -746.048685    -20301.0176
    2    0      -103.980912     -2829.4646
    3    0       -18.206601      -495.4268
    4    0        -3.040545       -82.7374
    2    1       -93.001013     -2530.6863
    3    1       -14.625827      -397.9890
    4    1        -2.084855       -56.7318
    3    2        -8.808854      -239.7011
    4    2        -0.765435       -20.8285


  List of ionic basis orbitals and eigenvalues:
    n    l      energy [Ha]    energy [eV]    outer radius [A]
    5    1        -0.465587       -12.6693       5.456393
    5    0        -0.650331       -17.6964       5.390095

 
  Mo                   hydrogenic:
 
  List of hydrogenic basis orbitals: 
    n    l      effective z      eigenvalue [eV]  inner max. [A]     outer max. [A]     outer radius [A]   
    4    3         8.400000       -60.0010           1.009788           1.009788           4.487018
    3    2         2.800000       -11.8048           1.687401           1.687401           5.456393
    5    4        12.000000       -78.3687           1.100005           1.100005           4.432498
 
  Creating atomic-like basis functions for current effective potential.

  Species S                   :

  List of atomic basis orbitals and eigenvalues:
    n    l      energy [Ha]    energy [eV]    outer radius [A]
    1    0       -88.680731     -2413.1255       0.682391
    2    0        -7.781719      -211.7513       2.289014
    3    0        -0.633662       -17.2428       5.256262
    2    1        -5.751976      -156.5192       2.555240
    3    1        -0.257086        -6.9957       5.386362


  Species Mo                  :

  List of atomic basis orbitals and eigenvalues:
    n    l      energy [Ha]    energy [eV]    outer radius [A]
    1    0      -745.344654    -20281.8600       0.247552
    2    0      -103.288246     -2810.6162       0.682864
    3    0       -17.516687      -476.6533       1.626637
    4    0        -2.358559       -64.1796       4.220963
    5    0        -0.145159        -3.9500       5.456393
    2    1       -92.308627     -2511.8455       0.699766
    3    1       -13.936005      -379.2180       1.793761
    4    1        -1.408138       -38.3174       4.828511
    3    2        -8.119011      -220.9295       2.181285
    4    2        -0.132984        -3.6187       5.390095

  Assembling full basis from fixed parts.
  | Species S :   atomic orbital   1 s accepted.
  | Species S :   atomic orbital   2 s accepted.
  | Species S :    ionic orbital   3 s accepted.
  | Species S :   atomic orbital   3 s accepted.
  | Species S :   atomic orbital   2 p accepted.
  | Species S :   atomic orbital   3 p accepted.
  | Species S :    hydro orbital   2 p accepted.
  | Species S :    ionic orbital   3 d accepted.
  | Species S :    hydro orbital   4 d accepted.
  | Species S :    hydro orbital   4 f accepted.
  | Species S :    hydro orbital   5 g accepted.
  | Species Mo :   atomic orbital   1 s accepted.
  | Species Mo :   atomic orbital   2 s accepted.
  | Species Mo :   atomic orbital   3 s accepted.
  | Species Mo :   atomic orbital   4 s accepted.
  | Species Mo :    ionic orbital   5 s accepted.
  | Species Mo :   atomic orbital   5 s accepted.
  | Species Mo :   atomic orbital   2 p accepted.
  | Species Mo :   atomic orbital   3 p accepted.
  | Species Mo :   atomic orbital   4 p accepted.
  | Species Mo :    ionic orbital   5 p accepted.
  | Species Mo :   atomic orbital   3 d accepted.
  | Species Mo :   atomic orbital   4 d accepted.
  | Species Mo :    hydro orbital   3 d accepted.
  | Species Mo :    hydro orbital   4 f accepted.
  | Species Mo :    hydro orbital   5 g accepted.
 
  Basis size parameters after reduction:
  | Total number of radial functions:       26
  | Total number of basis functions :      312
 
  Per-task memory consumption for arrays in subroutine allocate_ext:
  |           9.566776MB.
  Testing on-site integration grid accuracy.
  |  Species  Function  <phi|h_atom|phi> (log., in eV)  <phi|h_atom|phi> (rad., in eV)
           1        1              -2413.1254568977              -2413.1254096663
           1        2               -211.7513411281               -211.7513404762
           1        3                -16.9725280787                -16.9725279206
           1        4                  7.6024436204                  7.6024549059
           1        5               -156.5192206929               -156.5192205451
           1        6                 -6.9959757887                 -6.9959777655
           1        7                  6.8896462808                  6.8895564741
           1        8                  6.0214250550                  6.0214220200
           1        9                 19.6206468977                 19.6206494558
           1       10                 24.7008710786                 24.7008710738
           1       11                 47.5292252001                 47.5292260486
           2       12             -20281.8599610543             -20281.8584300616
           2       13              -2810.6161812280              -2810.6161551921
           2       14               -476.6533163555               -476.6533136395
           2       15                -64.1796433667                -64.1796426456
           2       16                 -3.3691762756                 -3.3691802887
           2       17                  4.4704608512                  4.4699102345
           2       18              -2511.8455406047              -2511.8455385741
           2       19               -379.2179896350               -379.2179882338
           2       20                -38.3173891619                -38.3173886619
           2       21                  0.2493245095                  0.2492931069
           2       22               -220.9295301098               -220.9295297081
           2       23                 -3.6195697699                 -3.6195754704
           2       24                  7.1428000922                  7.1426882355
           2       25                 23.3975871087                 23.3975871819
           2       26                 50.2449608881                 50.2449608586

  Preparing densities etc. for the partition functions (integrals / Hartree potential).

  Preparations completed.
  max(cpu_time)          :      0.434 s.
  Wall clock time (cpu1) :      0.445 s.
------------------------------------------------------------

------------------------------------------------------------
          Begin self-consistency loop: Initialization.

          Date     :  20210628, Time     :  160455.695
------------------------------------------------------------

  Initializing index lists of integration centers etc. from given atomic structure:
  | Number of centers in hartree potential         :         8
  | Number of centers in hartree multipole         :         8
  | Number of centers in electron density summation:         8
  | Number of centers in basis integrals           :         8
  | Number of centers in integrals                 :         8
  | Number of centers in hamiltonian               :         8
  * Using 40 tasks for Scalapack Eigenvalue solver.
  Detailed listing of tasks and assigned k-points:
  (for non-periodic systems, the "k-point" denotes an internal label only)
   Task     0 k-point     1 on co2258
   Task     1 k-point     1 on co2258
   Task     2 k-point     1 on co2258
   Task     3 k-point     1 on co2258
   Task     4 k-point     1 on co2258
   Task     5 k-point     1 on co2258
   Task     6 k-point     1 on co2258
   Task     7 k-point     1 on co2258
   Task     8 k-point     1 on co2258
   Task     9 k-point     1 on co2258
   Task    10 k-point     1 on co2258
   Task    11 k-point     1 on co2258
   Task    12 k-point     1 on co2258
   Task    13 k-point     1 on co2258
   Task    14 k-point     1 on co2258
   Task    15 k-point     1 on co2258
   Task    16 k-point     1 on co2258
   Task    17 k-point     1 on co2258
   Task    18 k-point     1 on co2258
   Task    19 k-point     1 on co2258
   Task    20 k-point     1 on co2258
   Task    21 k-point     1 on co2258
   Task    22 k-point     1 on co2258
   Task    23 k-point     1 on co2258
   Task    24 k-point     1 on co2258
   Task    25 k-point     1 on co2258
   Task    26 k-point     1 on co2258
   Task    27 k-point     1 on co2258
   Task    28 k-point     1 on co2258
   Task    29 k-point     1 on co2258
   Task    30 k-point     1 on co2258
   Task    31 k-point     1 on co2258
   Task    32 k-point     1 on co2258
   Task    33 k-point     1 on co2258
   Task    34 k-point     1 on co2258
   Task    35 k-point     1 on co2258
   Task    36 k-point     1 on co2258
   Task    37 k-point     1 on co2258
   Task    38 k-point     1 on co2258
   Task    39 k-point     1 on co2258
  Tasks:    40 split into      8 X      5 BLACS grid
  Calculating block size based on n_basis =          312  max_nprow =            8  max_npcol =            5
  ScaLAPACK block size set to:           16
  Allocating        0.023 MB for ovlp
  Allocating        0.023 MB for ham
  Allocating        0.023 MB for eigenvec
  Required Scalapack workspace - INTEGER:            1  REAL:             1
  Partitioning the integration grid into batches with parallel hashing+maxmin method.
  | Number of batches:     2321
  | Maximal batch size:     200
  | Minimal batch size:      22
  | Average batch size:      84.453
  | Standard deviation of batch sizes:      20.880

  Integration load balanced across    40 MPI tasks.
  Work distribution over tasks is as follows:
  Task     0 has       4912 integration points.
  Task     1 has       4930 integration points.
  Task     2 has       4849 integration points.
  Task     3 has       4830 integration points.
  Task     4 has       4932 integration points.
  Task     5 has       4941 integration points.
  Task     6 has       4944 integration points.
  Task     7 has       4835 integration points.
  Task     8 has       4827 integration points.
  Task     9 has       4925 integration points.
  Task    10 has       4918 integration points.
  Task    11 has       4887 integration points.
  Task    12 has       4941 integration points.
  Task    13 has       4927 integration points.
  Task    14 has       4958 integration points.
  Task    15 has       4935 integration points.
  Task    16 has       4881 integration points.
  Task    17 has       4856 integration points.
  Task    18 has       4933 integration points.
  Task    19 has       4882 integration points.
  Task    20 has       4931 integration points.
  Task    21 has       4861 integration points.
  Task    22 has       4966 integration points.
  Task    23 has       4838 integration points.
  Task    24 has       4961 integration points.
  Task    25 has       4830 integration points.
  Task    26 has       4938 integration points.
  Task    27 has       4928 integration points.
  Task    28 has       4969 integration points.
  Task    29 has       4928 integration points.
  Task    30 has       4825 integration points.
  Task    31 has       4844 integration points.
  Task    32 has       4878 integration points.
  Task    33 has       4858 integration points.
  Task    34 has       4931 integration points.
  Task    35 has       4925 integration points.
  Task    36 has       4936 integration points.
  Task    37 has       4883 integration points.
  Task    38 has       4839 integration points.
  Task    39 has       4904 integration points.
  Initializing partition tables, free-atom densities, potentials, etc. across the integration grid (initialize_grid_storage).
  | initialize_grid_storage: Actual outermost partition radius vs. multipole_radius_free
  | (-- VB: in principle, multipole_radius_free should be larger, hence this output)
  | Species        1: Confinement radius =              6.000000000000000 AA, multipole_radius_free =              6.012827091137924 AA.
  | Species        1: outer_partition_radius set to              6.012827091137924 AA .
  | Species        2: Confinement radius =              6.000000000000000 AA, multipole_radius_free =              6.016994434057369 AA.
  | Species        2: outer_partition_radius set to              6.016994434057369 AA .
  | The sparse table of interatomic distances needs          0.71 kbyte instead of         0.51 kbyte of memory.
  | Using the partition_type stratmann_smoother will reduce your memory usage.
  | Net number of integration points:   196016
  | of which are non-zero points    :   181186
  Renormalizing the initial density to the exact electron count on the 3D integration grid.
  | Initial density: Formal number of electrons (from input files) :     128.0000000000
  | Integrated number of electrons on 3D grid     :     127.9999793250
  | Charge integration error                      :      -0.0000206750
  | Normalization factor for density and gradient :       1.0000001615
  Renormalizing the free-atom superposition density to the exact electron count on the 3D integration grid.
  | Formal number of electrons (from input files) :     128.0000000000
  | Integrated number of electrons on 3D grid     :     127.9999793250
  | Charge integration error                      :      -0.0000206750
  | Normalization factor for density and gradient :       1.0000001615
  Obtaining max. number of non-zero basis functions in each batch (get_n_compute_maxes).
  | Maximal number of non-zero basis functions:      304 in task     0
  | Maximal number of non-zero basis functions:      292 in task     1
  | Maximal number of non-zero basis functions:      300 in task     2
  | Maximal number of non-zero basis functions:      303 in task     3
  | Maximal number of non-zero basis functions:      302 in task     4
  | Maximal number of non-zero basis functions:      303 in task     5
  | Maximal number of non-zero basis functions:      297 in task     6
  | Maximal number of non-zero basis functions:      294 in task     7
  | Maximal number of non-zero basis functions:      292 in task     8
  | Maximal number of non-zero basis functions:      301 in task     9
  | Maximal number of non-zero basis functions:      302 in task    10
  | Maximal number of non-zero basis functions:      298 in task    11
  | Maximal number of non-zero basis functions:      297 in task    12
  | Maximal number of non-zero basis functions:      292 in task    13
  | Maximal number of non-zero basis functions:      298 in task    14
  | Maximal number of non-zero basis functions:      302 in task    15
  | Maximal number of non-zero basis functions:      295 in task    16
  | Maximal number of non-zero basis functions:      302 in task    17
  | Maximal number of non-zero basis functions:      303 in task    18
  | Maximal number of non-zero basis functions:      303 in task    19
  | Maximal number of non-zero basis functions:      302 in task    20
  | Maximal number of non-zero basis functions:      302 in task    21
  | Maximal number of non-zero basis functions:      304 in task    22
  | Maximal number of non-zero basis functions:      302 in task    23
  | Maximal number of non-zero basis functions:      304 in task    24
  | Maximal number of non-zero basis functions:      304 in task    25
  | Maximal number of non-zero basis functions:      296 in task    26
  | Maximal number of non-zero basis functions:      297 in task    27
  | Maximal number of non-zero basis functions:      304 in task    28
  | Maximal number of non-zero basis functions:      298 in task    29
  | Maximal number of non-zero basis functions:      300 in task    30
  | Maximal number of non-zero basis functions:      304 in task    31
  | Maximal number of non-zero basis functions:      299 in task    32
  | Maximal number of non-zero basis functions:      299 in task    33
  | Maximal number of non-zero basis functions:      299 in task    34
  | Maximal number of non-zero basis functions:      299 in task    35
  | Maximal number of non-zero basis functions:      291 in task    36
  | Maximal number of non-zero basis functions:      302 in task    37
  | Maximal number of non-zero basis functions:      293 in task    38
  | Maximal number of non-zero basis functions:      298 in task    39
  Selecting the method for density update.
  Loop over occupied states selected for charge density update.
  Allocating        0.209 MB for KS_eigenvector
  Integrating Hamiltonian matrix: batch-based integration.
  Time summed over all CPUs for integration: real work        2.389 s, elapsed        2.523 s
  Integrating overlap matrix.
  Time summed over all CPUs for integration: real work        0.910 s, elapsed        0.963 s
  Deallocating overlap matrix.

  Updating Kohn-Sham eigenvalues and eigenvectors using ELSI and the ELPA eigensolver.
  Overlap matrix is not singular
  | Lowest and highest eigenvalues :  0.4525E-03,  0.4895E+01
  Finished singularity check of overlap matrix
  | Time :     0.012 s
  Starting ELPA eigensolver
  Finished Cholesky decomposition
  | Time :     0.004 s
  Finished transformation to standard eigenproblem
  | Time :     0.003 s
  Finished solving standard eigenproblem
  | Time :     0.009 s
  Finished back-transformation of eigenvectors
  | Time :     0.001 s

  Obtaining occupation numbers and chemical potential using ELSI.
  | Chemical potential (Fermi level):    -5.59914741 eV
  Writing Kohn-Sham eigenvalues.

  State    Occupation    Eigenvalue [Ha]    Eigenvalue [eV]
      1       2.00000         -88.694286        -2413.49433
      2       2.00000         -88.694248        -2413.49329
      3       2.00000         -88.694234        -2413.49290
      4       2.00000         -88.694233        -2413.49289
      5       2.00000         -88.694233        -2413.49289
      6       2.00000         -88.694233        -2413.49287
      7       2.00000         -88.694232        -2413.49285
      8       2.00000         -88.694197        -2413.49188
      9       2.00000          -7.797419         -212.17857
     10       2.00000          -7.797378         -212.17746
     11       2.00000          -7.797369         -212.17721
     12       2.00000          -7.797357         -212.17688
     13       2.00000          -7.797346         -212.17659
     14       2.00000          -7.797326         -212.17603
     15       2.00000          -7.797313         -212.17567
     16       2.00000          -7.797290         -212.17505
     17       2.00000          -5.768590         -156.97133
     18       2.00000          -5.768547         -156.97016
     19       2.00000          -5.768524         -156.96953
     20       2.00000          -5.768431         -156.96699
     21       2.00000          -5.768428         -156.96691
     22       2.00000          -5.768321         -156.96401
     23       2.00000          -5.768296         -156.96333
     24       2.00000          -5.768250         -156.96207
     25       2.00000          -5.767477         -156.94103
     26       2.00000          -5.767439         -156.94001
     27       2.00000          -5.767421         -156.93951
     28       2.00000          -5.767375         -156.93826
     29       2.00000          -5.767367         -156.93803
     30       2.00000          -5.767327         -156.93695
     31       2.00000          -5.767308         -156.93644
     32       2.00000          -5.767289         -156.93591
     33       2.00000          -5.766415         -156.91214
     34       2.00000          -5.766375         -156.91104
     35       2.00000          -5.766361         -156.91066
     36       2.00000          -5.766360         -156.91063
     37       2.00000          -5.766359         -156.91062
     38       2.00000          -5.766358         -156.91058
     39       2.00000          -5.766357         -156.91055
     40       2.00000          -5.766320         -156.90955
     41       2.00000          -0.821118          -22.34375
     42       2.00000          -0.792406          -21.56247
     43       2.00000          -0.792162          -21.55582
     44       2.00000          -0.716289          -19.49121
     45       2.00000          -0.715993          -19.48317
     46       2.00000          -0.612765          -16.67419
     47       2.00000          -0.612604          -16.66981
     48       2.00000          -0.542780          -14.76980
     49       2.00000          -0.449989          -12.24481
     50       2.00000          -0.425008          -11.56505
     51       2.00000          -0.425002          -11.56491
     52       2.00000          -0.393005          -10.69420
     53       2.00000          -0.368035          -10.01474
     54       2.00000          -0.368006          -10.01396
     55       2.00000          -0.361729           -9.84315
     56       2.00000          -0.361617           -9.84011
     57       2.00000          -0.329827           -8.97504
     58       2.00000          -0.277615           -7.55429
     59       2.00000          -0.277581           -7.55337
     60       2.00000          -0.270387           -7.35762
     61       2.00000          -0.270272           -7.35447
     62       2.00000          -0.262907           -7.15407
     63       2.00000          -0.262870           -7.15307
     64       2.00000          -0.256789           -6.98758
     65       0.00000          -0.132871           -3.61561
     66       0.00000          -0.132725           -3.61164
     67       0.00000          -0.120137           -3.26911
     68       0.00000          -0.085827           -2.33548
     69       0.00000          -0.084650           -2.30345
     70       0.00000          -0.084561           -2.30103
     71       0.00000          -0.083142           -2.26242
     72       0.00000          -0.082958           -2.25739
     73       0.00000           0.028295            0.76994
     74       0.00000           0.049396            1.34413
     75       0.00000           0.049497            1.34688
     76       0.00000           0.064485            1.75473
     77       0.00000           0.064521            1.75569
     78       0.00000           0.079517            2.16377
     79       0.00000           0.079580            2.16549
     80       0.00000           0.091421            2.48768
     81       0.00000           0.093512            2.54458
     82       0.00000           0.093680            2.54915
     83       0.00000           0.114827            3.12459
     84       0.00000           0.117744            3.20399
     85       0.00000           0.117756            3.20431
     86       0.00000           0.123075            3.34904
     87       0.00000           0.123128            3.35050
     88       0.00000           0.141249            3.84358

  Highest occupied state (VBM) at     -6.98757757 eV
  | Occupation number:      2.00000000

  Lowest unoccupied state (CBM) at    -3.61561205 eV
  | Occupation number:      0.00000000

  Overall HOMO-LUMO gap:      3.37196552 eV.
  Calculating total energy contributions from superposition of free atom densities.

  Total energy components:
  | Sum of eigenvalues            :       -1842.63349415 Ha      -50140.60850197 eV
  | XC energy correction          :        -204.89713133 Ha       -5575.53462369 eV
  | XC potential correction       :         264.82049454 Ha        7206.13230044 eV
  | Free-atom electrostatic energy:       -1415.64620312 Ha      -38521.69314897 eV
  | Hartree energy correction     :           0.00000000 Ha           0.00000000 eV
  | Entropy correction            :           0.00000000 Ha           0.00000000 eV
  | ---------------------------
  | Total energy                  :       -3198.35633406 Ha      -87031.70397420 eV
  | Total energy, T -> 0          :       -3198.35633406 Ha      -87031.70397420 eV  <-- do not rely on this value for anything but (periodic) metals
  | Electronic free energy        :       -3198.35633406 Ha      -87031.70397420 eV

  Derived energy quantities:
  | Kinetic energy                :        3210.59182190 Ha       87364.64853833 eV
  | Electrostatic energy          :       -6204.05102463 Ha     -168820.81788883 eV
  | Energy correction for multipole
  | error in Hartree potential    :           0.00000000 Ha           0.00000000 eV
  | Sum of eigenvalues per atom                           :       -6267.57606275 eV
  | Total energy (T->0) per atom                          :      -10878.96299677 eV  <-- do not rely on this value for anything but (periodic) metals
  | Electronic free energy per atom                       :      -10878.96299677 eV
  Initialize hartree_potential_storage
  Max. number of atoms included in rho_multipole:            8

  End scf initialization - timings             :  max(cpu_time)    wall_clock(cpu1)
  | Time for scf. initialization               :        0.240 s           0.243 s
  | Boundary condition initialization          :        0.000 s           0.000 s
  | Integration                                :        0.091 s           0.092 s
  | Solution of K.-S. eqns.                    :        0.031 s           0.032 s
  | Grid partitioning                          :        0.089 s           0.090 s
  | Preloading free-atom quantities on grid    :        0.020 s           0.019 s
  | Free-atom superposition energy             :        0.005 s           0.005 s
  | Total energy evaluation                    :        0.000 s           0.000 s

  Partial memory accounting:
  | Current value for overall tracked memory usage:
  |   Minimum:        0.624 MB (on task 24)
  |   Maximum:        0.653 MB (on task  0)
  |   Average:        0.639 MB
  | Peak value for overall tracked memory usage:
  |   Minimum:        2.987 MB (on task 36 after allocating wave)
  |   Maximum:        3.129 MB (on task  0 after allocating wave)
  |   Average:        3.073 MB
  | Largest tracked array allocation so far:
  |   Minimum:        0.646 MB (hamiltonian_shell on task 36)
  |   Maximum:        0.916 MB (all_coords on task 21)
  |   Average:        0.706 MB
  Note:  These values currently only include a subset of arrays which are explicitly tracked.
  The "true" memory usage will be greater.
------------------------------------------------------------
  Evaluating new KS density.
  Integration grid: deviation in total charge (<rho> - N_e) =   5.684342E-14

  Time for density update prior                :  max(cpu_time)    wall_clock(cpu1)
  | self-consistency iterative process         :        0.049 s           0.050 s

------------------------------------------------------------
          Begin self-consistency iteration #    1

  Date     :  20210628, Time     :  160455.988
------------------------------------------------------------
  Pulay mixing of updated and previous charge densities.
  Renormalizing the density to the exact electron count on the 3D integration grid.
  | Formal number of electrons (from input files) :     128.0000000000
  | Integrated number of electrons on 3D grid     :     128.0000000000
  | Charge integration error                      :      -0.0000000000
  | Normalization factor for density and gradient :       1.0000000000

  Evaluating partitioned Hartree potential by multipole expansion.
  | Original multipole sum: apparent total charge =  -0.985052E-13
  | Sum of charges compensated after spline to logarithmic grids =   0.191612E-06
  | Analytical far-field extrapolation by fixed multipoles:
  | Hartree multipole sum: apparent total charge =  -0.984929E-13
  Summing up the Hartree potential.
  Time summed over all CPUs for potential: real work        0.824 s, elapsed        0.868 s
  | RMS charge density error from multipole expansion :   0.575295E-03

  Integrating Hamiltonian matrix: batch-based integration.
  Time summed over all CPUs for integration: real work        2.320 s, elapsed        2.443 s

  Updating Kohn-Sham eigenvalues and eigenvectors using ELSI and the ELPA eigensolver.
  Starting ELPA eigensolver
  Finished transformation to standard eigenproblem
  | Time :     0.002 s
  Finished solving standard eigenproblem
  | Time :     0.008 s
  Finished back-transformation of eigenvectors
  | Time :     0.000 s

  Obtaining occupation numbers and chemical potential using ELSI.
  | Chemical potential (Fermi level):    -5.54481533 eV
  Writing Kohn-Sham eigenvalues.

  State    Occupation    Eigenvalue [Ha]    Eigenvalue [eV]
      1       2.00000         -88.690666        -2413.39582
      2       2.00000         -88.690613        -2413.39436
      3       2.00000         -88.690605        -2413.39414
      4       2.00000         -88.690602        -2413.39407
      5       2.00000         -88.690601        -2413.39403
      6       2.00000         -88.690593        -2413.39382
      7       2.00000         -88.690580        -2413.39347
      8       2.00000         -88.690554        -2413.39276
      9       2.00000          -7.793985         -212.08514
     10       2.00000          -7.793937         -212.08380
     11       2.00000          -7.793926         -212.08352
     12       2.00000          -7.793911         -212.08310
     13       2.00000          -7.793902         -212.08286
     14       2.00000          -7.793878         -212.08220
     15       2.00000          -7.793867         -212.08190
     16       2.00000          -7.793842         -212.08123
     17       2.00000          -5.765539         -156.88831
     18       2.00000          -5.765497         -156.88715
     19       2.00000          -5.765470         -156.88642
     20       2.00000          -5.765375         -156.88383
     21       2.00000          -5.765372         -156.88375
     22       2.00000          -5.765265         -156.88085
     23       2.00000          -5.765239         -156.88014
     24       2.00000          -5.765197         -156.87898
     25       2.00000          -5.764147         -156.85041
     26       2.00000          -5.764108         -156.84937
     27       2.00000          -5.764087         -156.84879
     28       2.00000          -5.764040         -156.84751
     29       2.00000          -5.764032         -156.84730
     30       2.00000          -5.763987         -156.84607
     31       2.00000          -5.763969         -156.84558
     32       2.00000          -5.763950         -156.84505
     33       2.00000          -5.762401         -156.80291
     34       2.00000          -5.762342         -156.80130
     35       2.00000          -5.762339         -156.80122
     36       2.00000          -5.762333         -156.80106
     37       2.00000          -5.762332         -156.80103
     38       2.00000          -5.762325         -156.80084
     39       2.00000          -5.762315         -156.80057
     40       2.00000          -5.762283         -156.79971
     41       2.00000          -0.818645          -22.27647
     42       2.00000          -0.789908          -21.49449
     43       2.00000          -0.789664          -21.48784
     44       2.00000          -0.713722          -19.42137
     45       2.00000          -0.713432          -19.41348
     46       2.00000          -0.610075          -16.60099
     47       2.00000          -0.609917          -16.59669
     48       2.00000          -0.539865          -14.69047
     49       2.00000          -0.447738          -12.18357
     50       2.00000          -0.422545          -11.49804
     51       2.00000          -0.422539          -11.49788
     52       2.00000          -0.390626          -10.62947
     53       2.00000          -0.365535           -9.94671
     54       2.00000          -0.365505           -9.94590
     55       2.00000          -0.359352           -9.77847
     56       2.00000          -0.359239           -9.77539
     57       2.00000          -0.327110           -8.90113
     58       2.00000          -0.274829           -7.47847
     59       2.00000          -0.274792           -7.47748
     60       2.00000          -0.267713           -7.28485
     61       2.00000          -0.267599           -7.28173
     62       2.00000          -0.260086           -7.07731
     63       2.00000          -0.260050           -7.07633
     64       2.00000          -0.254012           -6.91203
     65       0.00000          -0.130659           -3.55542
     66       0.00000          -0.130514           -3.55145
     67       0.00000          -0.117816           -3.20594
     68       0.00000          -0.083670           -2.27677
     69       0.00000          -0.082474           -2.24422
     70       0.00000          -0.082385           -2.24181
     71       0.00000          -0.080735           -2.19691
     72       0.00000          -0.080550           -2.19189
     73       0.00000           0.030270            0.82368
     74       0.00000           0.051369            1.39782
     75       0.00000           0.051469            1.40054
     76       0.00000           0.066283            1.80365
     77       0.00000           0.066319            1.80463
     78       0.00000           0.081023            2.20474
     79       0.00000           0.081086            2.20647
     80       0.00000           0.092956            2.52947
     81       0.00000           0.095195            2.59039
     82       0.00000           0.095689            2.60382
     83       0.00000           0.116818            3.17879
     84       0.00000           0.119692            3.25699
     85       0.00000           0.119703            3.25727
     86       0.00000           0.124932            3.39956
     87       0.00000           0.124985            3.40101
     88       0.00000           0.143239            3.89774

  Highest occupied state (VBM) at     -6.91203084 eV
  | Occupation number:      2.00000000

  Lowest unoccupied state (CBM) at    -3.55541845 eV
  | Occupation number:      0.00000000

  Overall HOMO-LUMO gap:      3.35661239 eV.

  Total energy components:
  | Sum of eigenvalues            :       -1842.22900625 Ha      -50129.60182622 eV
  | XC energy correction          :        -204.92094971 Ha       -5576.18275476 eV
  | XC potential correction       :         264.85115192 Ha        7206.96653022 eV
  | Free-atom electrostatic energy:       -1415.64620312 Ha      -38521.69314897 eV
  | Hartree energy correction     :          -0.40818147 Ha         -11.10718298 eV
  | Entropy correction            :           0.00000000 Ha           0.00000000 eV
  | ---------------------------
  | Total energy                  :       -3198.35318863 Ha      -87031.61838271 eV
  | Total energy, T -> 0          :       -3198.35318863 Ha      -87031.61838271 eV  <-- do not rely on this value for anything but (periodic) metals
  | Electronic free energy        :       -3198.35318863 Ha      -87031.61838271 eV

  Derived energy quantities:
  | Kinetic energy                :        3210.65963970 Ha       87366.49395464 eV
  | Electrostatic energy          :       -6204.09187862 Ha     -168821.92958259 eV
  | Energy correction for multipole
  | error in Hartree potential    :          -0.00027179 Ha          -0.00739582 eV
  | Sum of eigenvalues per atom                           :       -6266.20022828 eV
  | Total energy (T->0) per atom                          :      -10878.95229784 eV  <-- do not rely on this value for anything but (periodic) metals
  | Electronic free energy per atom                       :      -10878.95229784 eV
  Evaluating new KS density.
  Integration grid: deviation in total charge (<rho> - N_e) =   5.684342E-14

  Self-consistency convergence accuracy:
  | Change of charge density      :  0.2417E+00
  | Change of sum of eigenvalues  :  0.1101E+02 eV
  | Change of total energy        :  0.8559E-01 eV


------------------------------------------------------------
  End self-consistency iteration #     1       :  max(cpu_time)    wall_clock(cpu1)
  | Time for this iteration                    :        0.147 s           0.148 s
  | Charge density update                      :        0.047 s           0.047 s
  | Density mixing                             :        0.001 s           0.001 s
  | Hartree multipole update                   :        0.003 s           0.003 s
  | Hartree multipole summation                :        0.022 s           0.022 s
  | Integration                                :        0.062 s           0.063 s
  | Solution of K.-S. eqns.                    :        0.012 s           0.011 s
  | Total energy evaluation                    :        0.001 s           0.000 s

  Partial memory accounting:
  | Current value for overall tracked memory usage:
  |   Minimum:        0.624 MB (on task 24)
  |   Maximum:        0.653 MB (on task  0)
  |   Average:        0.639 MB
  | Peak value for overall tracked memory usage:
  |   Minimum:        2.987 MB (on task 36 after allocating wave)
  |   Maximum:        3.129 MB (on task  0 after allocating wave)
  |   Average:        3.073 MB
  | Largest tracked array allocation so far:
  |   Minimum:        1.332 MB (gradient_basis_wave on task 36)
  |   Maximum:        1.392 MB (gradient_basis_wave on task  0)
  |   Average:        1.371 MB
  Note:  These values currently only include a subset of arrays which are explicitly tracked.
  The "true" memory usage will be greater.
------------------------------------------------------------

------------------------------------------------------------
          Begin self-consistency iteration #    2

  Date     :  20210628, Time     :  160456.137
------------------------------------------------------------
  Pulay mixing of updated and previous charge densities.
  Renormalizing the density to the exact electron count on the 3D integration grid.
  | Formal number of electrons (from input files) :     128.0000000000
  | Integrated number of electrons on 3D grid     :     128.0000000000
  | Charge integration error                      :       0.0000000000
  | Normalization factor for density and gradient :       1.0000000000

  Evaluating partitioned Hartree potential by multipole expansion.
  | Original multipole sum: apparent total charge =  -0.134349E-13
  | Sum of charges compensated after spline to logarithmic grids =   0.105516E-05
  | Analytical far-field extrapolation by fixed multipoles:
  | Hartree multipole sum: apparent total charge =  -0.134430E-13
  Summing up the Hartree potential.
  Time summed over all CPUs for potential: real work        0.824 s, elapsed        0.872 s
  | RMS charge density error from multipole expansion :   0.512930E-02

  Integrating Hamiltonian matrix: batch-based integration.
  Time summed over all CPUs for integration: real work        2.322 s, elapsed        2.451 s

  Updating Kohn-Sham eigenvalues and eigenvectors using ELSI and the ELPA eigensolver.
  Starting ELPA eigensolver
  Finished transformation to standard eigenproblem
  | Time :     0.001 s
  Finished solving standard eigenproblem
  | Time :     0.008 s
  Finished back-transformation of eigenvectors
  | Time :     0.000 s

  Obtaining occupation numbers and chemical potential using ELSI.
  | Chemical potential (Fermi level):    -5.13246519 eV
  Highest occupied state (VBM) at     -6.33714332 eV
  | Occupation number:      2.00000000

  Lowest unoccupied state (CBM) at    -3.09959795 eV
  | Occupation number:      0.00000000

  Overall HOMO-LUMO gap:      3.23754537 eV.

  Checking to see if s.c.f. parameters should be adjusted.
  Kept the default occupation width. Value:   0.010000 eV.

  Total energy components:
  | Sum of eigenvalues            :       -1839.27337820 Ha      -50049.17509468 eV
  | XC energy correction          :        -205.12042067 Ha       -5581.61063575 eV
  | XC potential correction       :         265.10648601 Ha        7213.91452434 eV
  | Free-atom electrostatic energy:       -1415.64620312 Ha      -38521.69314897 eV
  | Hartree energy correction     :          -3.41018452 Ha         -92.79584231 eV
  | Entropy correction            :           0.00000000 Ha           0.00000000 eV
  | ---------------------------
  | Total energy                  :       -3198.34370050 Ha      -87031.36019737 eV
  | Total energy, T -> 0          :       -3198.34370050 Ha      -87031.36019737 eV  <-- do not rely on this value for anything but (periodic) metals
  | Electronic free energy        :       -3198.34370050 Ha      -87031.36019737 eV

  Derived energy quantities:
  | Kinetic energy                :        3211.01498225 Ha       87376.16331729 eV
  | Electrostatic energy          :       -6204.23826207 Ha     -168825.91287891 eV
  | Energy correction for multipole
  | error in Hartree potential    :          -0.00255373 Ha          -0.06949054 eV
  | Sum of eigenvalues per atom                           :       -6256.14688683 eV
  | Total energy (T->0) per atom                          :      -10878.92002467 eV  <-- do not rely on this value for anything but (periodic) metals
  | Electronic free energy per atom                       :      -10878.92002467 eV
  Evaluating new KS density.
  Integration grid: deviation in total charge (<rho> - N_e) =   2.842171E-14

  Self-consistency convergence accuracy:
  | Change of charge density      :  0.2149E+00
  | Change of sum of eigenvalues  :  0.8043E+02 eV
  | Change of total energy        :  0.2582E+00 eV


------------------------------------------------------------
  End self-consistency iteration #     2       :  max(cpu_time)    wall_clock(cpu1)
  | Time for this iteration                    :        0.147 s           0.147 s
  | Charge density update                      :        0.047 s           0.047 s
  | Density mixing                             :        0.001 s           0.001 s
  | Hartree multipole update                   :        0.002 s           0.003 s
  | Hartree multipole summation                :        0.022 s           0.022 s
  | Integration                                :        0.063 s           0.062 s
  | Solution of K.-S. eqns.                    :        0.011 s           0.010 s
  | Total energy evaluation                    :        0.000 s           0.000 s

  Partial memory accounting:
  | Current value for overall tracked memory usage:
  |   Minimum:        0.625 MB (on task 24)
  |   Maximum:        0.654 MB (on task  0)
  |   Average:        0.640 MB
  | Peak value for overall tracked memory usage:
  |   Minimum:        2.987 MB (on task 36 after allocating wave)
  |   Maximum:        3.129 MB (on task  0 after allocating wave)
  |   Average:        3.073 MB
  | Largest tracked array allocation so far:
  |   Minimum:        1.332 MB (gradient_basis_wave on task 36)
  |   Maximum:        1.392 MB (gradient_basis_wave on task  0)
  |   Average:        1.371 MB
  Note:  These values currently only include a subset of arrays which are explicitly tracked.
  The "true" memory usage will be greater.
------------------------------------------------------------

------------------------------------------------------------
          Begin self-consistency iteration #    3

  Date     :  20210628, Time     :  160456.285
------------------------------------------------------------
  Pulay mixing of updated and previous charge densities.
  Renormalizing the density to the exact electron count on the 3D integration grid.
  | Formal number of electrons (from input files) :     128.0000000000
  | Integrated number of electrons on 3D grid     :     128.0000000000
  | Charge integration error                      :       0.0000000000
  | Normalization factor for density and gradient :       1.0000000000

  Evaluating partitioned Hartree potential by multipole expansion.
  | Original multipole sum: apparent total charge =  -0.699190E-13
  | Sum of charges compensated after spline to logarithmic grids =   0.949224E-06
  | Analytical far-field extrapolation by fixed multipoles:
  | Hartree multipole sum: apparent total charge =  -0.699915E-13
  Summing up the Hartree potential.
  Time summed over all CPUs for potential: real work        0.825 s, elapsed        0.868 s
  | RMS charge density error from multipole expansion :   0.550027E-02

  Integrating Hamiltonian matrix: batch-based integration.
  Time summed over all CPUs for integration: real work        2.322 s, elapsed        2.452 s

  Updating Kohn-Sham eigenvalues and eigenvectors using ELSI and the ELPA eigensolver.
  Starting ELPA eigensolver
  Finished transformation to standard eigenproblem
  | Time :     0.002 s
  Finished solving standard eigenproblem
  | Time :     0.007 s
  Finished back-transformation of eigenvectors
  | Time :     0.001 s

  Obtaining occupation numbers and chemical potential using ELSI.
  | Chemical potential (Fermi level):    -5.23113361 eV
  Highest occupied state (VBM) at     -6.47005438 eV
  | Occupation number:      2.00000000

  Lowest unoccupied state (CBM) at    -3.22526298 eV
  | Occupation number:      0.00000000

  Overall HOMO-LUMO gap:      3.24479140 eV.

  Total energy components:
  | Sum of eigenvalues            :       -1840.53253278 Ha      -50083.43843430 eV
  | XC energy correction          :        -205.04647761 Ha       -5579.59854257 eV
  | XC potential correction       :         265.00896735 Ha        7211.26090642 eV
  | Free-atom electrostatic energy:       -1415.64620312 Ha      -38521.69314897 eV
  | Hartree energy correction     :          -2.12698249 Ha         -57.87813832 eV
  | Entropy correction            :           0.00000000 Ha           0.00000000 eV
  | ---------------------------
  | Total energy                  :       -3198.34322865 Ha      -87031.34735774 eV
  | Total energy, T -> 0          :       -3198.34322865 Ha      -87031.34735774 eV  <-- do not rely on this value for anything but (periodic) metals
  | Electronic free energy        :       -3198.34322865 Ha      -87031.34735774 eV

  Derived energy quantities:
  | Kinetic energy                :        3210.17778871 Ha       87353.38212193 eV
  | Electrostatic energy          :       -6203.47453975 Ha     -168805.13093710 eV
  | Energy correction for multipole
  | error in Hartree potential    :          -0.00311225 Ha          -0.08468861 eV
  | Sum of eigenvalues per atom                           :       -6260.42980429 eV
  | Total energy (T->0) per atom                          :      -10878.91841972 eV  <-- do not rely on this value for anything but (periodic) metals
  | Electronic free energy per atom                       :      -10878.91841972 eV
  Evaluating new KS density.
  Integration grid: deviation in total charge (<rho> - N_e) =   8.526513E-14

  Self-consistency convergence accuracy:
  | Change of charge density      :  0.2688E-01
  | Change of sum of eigenvalues  : -0.3426E+02 eV
  | Change of total energy        :  0.1284E-01 eV


------------------------------------------------------------
  End self-consistency iteration #     3       :  max(cpu_time)    wall_clock(cpu1)
  | Time for this iteration                    :        0.146 s           0.146 s
  | Charge density update                      :        0.047 s           0.047 s
  | Density mixing                             :        0.001 s           0.001 s
  | Hartree multipole update                   :        0.002 s           0.002 s
  | Hartree multipole summation                :        0.022 s           0.022 s
[...]
   Multipole                     :  0.204760E-01  0.128925E-01  0.662081E-01
   Hartree pot. SCF incomplete   : -0.167919E-03 -0.469269E-04  0.199359E-03
   Pulay + GGA                   : -0.236803E+02 -0.827770E+01  0.223071E+02
   ----------------------------------------------------------------
   Total forces(   2)            : -0.399723E-02  0.273167E-01 -0.487176E-02
  atom #    3
   Hellmann-Feynman              :  0.412753E+01  0.198516E+02  0.267252E+02
   Ionic forces                  :  0.000000E+00  0.000000E+00  0.000000E+00
   Multipole                     :  0.222437E-01  0.300933E-01 -0.593364E-01
   Hartree pot. SCF incomplete   : -0.129332E-04 -0.134844E-03 -0.224667E-03
   Pulay + GGA                   : -0.414522E+01 -0.198900E+02 -0.266724E+02
   ----------------------------------------------------------------
   Total forces(   3)            :  0.453586E-02 -0.844068E-02 -0.675975E-02
  atom #    4
   Hellmann-Feynman              : -0.408422E+01  0.198764E+02 -0.267701E+02
   Ionic forces                  :  0.000000E+00  0.000000E+00  0.000000E+00
   Multipole                     : -0.223051E-01  0.304257E-01  0.593839E-01
   Hartree pot. SCF incomplete   :  0.223252E-04 -0.131630E-03  0.218615E-03
   Pulay + GGA                   :  0.411001E+01 -0.199074E+02  0.267132E+02
   ----------------------------------------------------------------
   Total forces(   4)            :  0.350864E-02 -0.768066E-03  0.271967E-02
  atom #    5
   Hellmann-Feynman              : -0.155728E+02 -0.823140E+01 -0.285933E+02
   Ionic forces                  :  0.000000E+00  0.000000E+00  0.000000E+00
   Multipole                     : -0.397549E-01 -0.126637E-01  0.565980E-01
   Hartree pot. SCF incomplete   :  0.982697E-04  0.465493E-04  0.236692E-03
   Pulay + GGA                   :  0.156129E+02  0.824415E+01  0.285365E+02
   ----------------------------------------------------------------
   Total forces(   5)            :  0.425523E-03  0.129714E-03  0.313619E-04
  atom #    6
   Hellmann-Feynman              : -0.121906E+02 -0.198814E+02  0.241726E+02
   Ionic forces                  :  0.000000E+00  0.000000E+00  0.000000E+00
   Multipole                     : -0.260407E-02 -0.304889E-01 -0.634484E-01
   Hartree pot. SCF incomplete   :  0.832930E-04  0.132498E-03 -0.201686E-03
   Pulay + GGA                   :  0.121939E+02  0.199117E+02 -0.241092E+02
   ----------------------------------------------------------------
   Total forces(   6)            :  0.739622E-03 -0.123330E-03 -0.205986E-03
  atom #    7
   Hellmann-Feynman              :  0.121840E+02 -0.198642E+02 -0.241729E+02
   Ionic forces                  :  0.000000E+00  0.000000E+00  0.000000E+00
   Multipole                     :  0.254272E-02 -0.305919E-01  0.633551E-01
   Hartree pot. SCF incomplete   : -0.882981E-04  0.133118E-03  0.218487E-03
   Pulay + GGA                   : -0.121907E+02  0.198888E+02  0.241066E+02
   ----------------------------------------------------------------
   Total forces(   7)            : -0.422766E-02 -0.584010E-02 -0.272998E-02
  atom #    8
   Hellmann-Feynman              : -0.236769E+02  0.823075E+01  0.223487E+02
   Ionic forces                  :  0.000000E+00  0.000000E+00  0.000000E+00
   Multipole                     : -0.203521E-01  0.126918E-01 -0.661815E-01
   Hartree pot. SCF incomplete   :  0.166989E-03 -0.550652E-04 -0.194057E-03
   Pulay + GGA                   :  0.236961E+02 -0.824273E+01 -0.222821E+02
   ----------------------------------------------------------------
   Total forces(   8)            : -0.983784E-03  0.663489E-03  0.215077E-03


  Self-consistency convergence accuracy:
  | Change of charge density      :  0.2510E-05
  | Change of sum of eigenvalues  :  0.6837E-04 eV
  | Change of total energy        :  0.3103E-07 eV
  | Change of forces              :  0.1104E+01 eV/A

  Writing Kohn-Sham eigenvalues.

  State    Occupation    Eigenvalue [Ha]    Eigenvalue [eV]
      1       2.00000         -88.678533        -2413.06566
      2       2.00000         -88.678506        -2413.06492
      3       2.00000         -88.678471        -2413.06398
      4       2.00000         -88.678461        -2413.06371
      5       2.00000         -88.678448        -2413.06334
      6       2.00000         -88.678439        -2413.06310
      7       2.00000         -88.678397        -2413.06196
      8       2.00000         -88.678392        -2413.06182
      9       2.00000          -7.780088         -211.70697
     10       2.00000          -7.780043         -211.70574
     11       2.00000          -7.780025         -211.70526
     12       2.00000          -7.779993         -211.70439
     13       2.00000          -7.779992         -211.70435
     14       2.00000          -7.779961         -211.70350
     15       2.00000          -7.779933         -211.70275
     16       2.00000          -7.779921         -211.70242
     17       2.00000          -5.754913         -156.59914
     18       2.00000          -5.754876         -156.59814
     19       2.00000          -5.754847         -156.59735
     20       2.00000          -5.754743         -156.59452
     21       2.00000          -5.754738         -156.59439
     22       2.00000          -5.754630         -156.59144
     23       2.00000          -5.754604         -156.59075
     24       2.00000          -5.754572         -156.58986
     25       2.00000          -5.751185         -156.49770
     26       2.00000          -5.751155         -156.49690
     27       2.00000          -5.751134         -156.49631
     28       2.00000          -5.751075         -156.49473
     29       2.00000          -5.751072         -156.49463
     30       2.00000          -5.751017         -156.49314
     31       2.00000          -5.750994         -156.49251
     32       2.00000          -5.750982         -156.49219
     33       2.00000          -5.744206         -156.30780
     34       2.00000          -5.744152         -156.30632
     35       2.00000          -5.744122         -156.30552
     36       2.00000          -5.744115         -156.30532
     37       2.00000          -5.744108         -156.30514
     38       2.00000          -5.744094         -156.30476
     39       2.00000          -5.744055         -156.30369
     40       2.00000          -5.744041         -156.30331
     41       2.00000          -0.804246          -21.88466
     42       2.00000          -0.775359          -21.09860
     43       2.00000          -0.775119          -21.09207
     44       2.00000          -0.698767          -19.01441
     45       2.00000          -0.698498          -19.00710
     46       2.00000          -0.594364          -16.17347
     47       2.00000          -0.594218          -16.16948
     48       2.00000          -0.522698          -14.22334
     49       2.00000          -0.434716          -11.82922
     50       2.00000          -0.408017          -11.10271
     51       2.00000          -0.408006          -11.10240
     52       2.00000          -0.376309          -10.23988
     53       2.00000          -0.350776           -9.54511
     54       2.00000          -0.350744           -9.54423
     55       2.00000          -0.345179           -9.39280
     56       2.00000          -0.345065           -9.38969
     57       2.00000          -0.310456           -8.44793
     58       2.00000          -0.258073           -7.02253
     59       2.00000          -0.258026           -7.02125
     60       2.00000          -0.251573           -6.84565
     61       2.00000          -0.251461           -6.84261
     62       2.00000          -0.242909           -6.60988
     63       2.00000          -0.242877           -6.60903
     64       2.00000          -0.237214           -6.45491
     65       0.00000          -0.117782           -3.20500
     66       0.00000          -0.117635           -3.20100
     67       0.00000          -0.104147           -2.83398
     68       0.00000          -0.071343           -1.94134
     69       0.00000          -0.069670           -1.89582
     70       0.00000          -0.069580           -1.89336
     71       0.00000          -0.066504           -1.80966
     72       0.00000          -0.066320           -1.80466
     73       0.00000           0.042779            1.16409
     74       0.00000           0.063450            1.72656
     75       0.00000           0.063547            1.72920
     76       0.00000           0.077486            2.10850
     77       0.00000           0.077527            2.10961
     78       0.00000           0.090107            2.45193
     79       0.00000           0.090172            2.45370
     80       0.00000           0.102206            2.78118
     81       0.00000           0.105742            2.87737
     82       0.00000           0.108163            2.94325
     83       0.00000           0.129310            3.51869
     84       0.00000           0.131525            3.57899
     85       0.00000           0.131535            3.57925
     86       0.00000           0.136333            3.70980
     87       0.00000           0.136386            3.71125
     88       0.00000           0.155201            4.22322

  Highest occupied state (VBM) at     -6.45491094 eV
  | Occupation number:      2.00000000

  Lowest unoccupied state (CBM) at    -3.20500011 eV
  | Occupation number:      0.00000000

  Overall HOMO-LUMO gap:      3.24991083 eV.
  | Chemical Potential                          :    -5.21931170 eV

  Self-consistency cycle converged.


------------------------------------------------------------
  End self-consistency iteration #    12       :  max(cpu_time)    wall_clock(cpu1)
  | Time for this iteration                    :        0.434 s           0.435 s
  | Charge density & force component update    :        0.241 s           0.241 s
  | Density mixing                             :        0.003 s           0.003 s
  | Hartree multipole update                   :        0.002 s           0.003 s
  | Hartree multipole summation                :        0.069 s           0.069 s
  | Hartree pot. SCF incomplete forces         :        0.046 s           0.046 s
  | Integration                                :        0.062 s           0.062 s
  | Solution of K.-S. eqns.                    :        0.009 s           0.009 s
  | Total energy evaluation                    :        0.000 s           0.000 s

  Partial memory accounting:
  | Current value for overall tracked memory usage:
  |   Minimum:        0.628 MB (on task 24)
  |   Maximum:        0.658 MB (on task  0)
  |   Average:        0.643 MB
  | Peak value for overall tracked memory usage:
  |   Minimum:        5.550 MB (on task 36 after allocating hessian_basis_wave)
  |   Maximum:        5.772 MB (on task  0 after allocating hessian_basis_wave)
  |   Average:        5.688 MB
  | Largest tracked array allocation so far:
  |   Minimum:        2.664 MB (hessian_basis_wave on task 36)
  |   Maximum:        2.783 MB (hessian_basis_wave on task  0)
  |   Average:        2.741 MB
  Note:  These values currently only include a subset of arrays which are explicitly tracked.
  The "true" memory usage will be greater.
------------------------------------------------------------
  Removing unitary transformations (pure translations, rotations) from forces on atoms.
  Atomic forces before filtering:
  | Net force on center of mass :  -0.202783E-05 -0.884681E-04 -0.710734E-05 eV/A
  | Net torque on center of mass:   0.147049E-04 -0.170898E-03  0.194056E-05 eV
  Atomic forces after filtering:
  | Net force on center of mass :  -0.348449E-18 -0.313605E-17 -0.187292E-17 eV/A
  | Net torque on center of mass:   0.349191E-17  0.405661E-17 -0.318997E-16 eV

  Energy and forces in a compact form:
  | Total energy uncorrected      :         -0.870313469237676E+05 eV
  | Total energy corrected        :         -0.870313469237676E+05 eV  <-- do not rely on this value for anything but (periodic) metals
  | Electronic free energy        :         -0.870313469237676E+05 eV
  Total atomic forces (unitary forces cleaned) [eV/Ang]:
  |    1          0.289877165547851E-05         -0.130147854439607E-01          0.115811428623364E-01
  |    2         -0.399782188273272E-02          0.273274452066858E-01         -0.488702716479773E-02
  |    3          0.454062174247838E-02         -0.842931761992073E-02         -0.676589043357741E-02
  |    4          0.350476491248587E-02         -0.757308648759517E-03          0.272496454072901E-02
  |    5          0.419971500787017E-03          0.140459821896436E-03          0.473439578186095E-04
  |    6          0.742017530387665E-03         -0.111986679485721E-03         -0.197007003844894E-03
  |    7         -0.422992745985629E-02         -0.582932797090245E-02         -0.273455513128463E-02
  |    8         -0.982525115205404E-03          0.674821334446787E-03          0.231028372620665E-03

  ------------------------------------ 
  Start decomposition of the XC Energy 
  ------------------------------------ 
  X and C from original XC functional choice 
  Hartree-Fock Energy :          0.000000000 Ha              0.000000000 eV
  X Energy            :       -200.052268187 Ha          -5443.699189738 eV
  C Energy            :         -5.002886051 Ha           -136.135455947 eV
  Total XC Energy     :       -205.055154238 Ha          -5579.834645686 eV
  ------------------------------------ 
  LDA X and C from self-consistent density 
  X Energy LDA        :       -185.463252886 Ha          -5046.711884894 eV
  C Energy LDA        :         -9.954324344 Ha           -270.870947169 eV
  ------------------------------------ 
  End decomposition of the XC Energy 
  ------------------------------------ 

------------------------------------------------------------

------------------------------------------------------------------------------
  Final output of selected total energy values:

  The following output summarizes some interesting total energy values
  at the end of a run (AFTER all relaxation, molecular dynamics, etc.).

  | Total energy of the DFT / Hartree-Fock s.c.f. calculation      :         -87031.346923768 eV
  | Final zero-broadening corrected energy (caution - metals only) :         -87031.346923768 eV
  | For reference only, the value of 1 Hartree used in FHI-aims is :             27.211384500 eV

  Before relying on these values, please be sure to understand exactly which
  total energy value is referred to by a given number. Different objects may
  all carry the same name 'total energy'. Definitions:

  Total energy of the DFT / Hartree-Fock s.c.f. calculation:
  | Note that this energy does not include ANY quantities calculated after the
  | s.c.f. cycle, in particular not ANY RPA, MP2, etc. many-body perturbation terms.

  Final zero-broadening corrected energy:
  | For metallic systems only, a broadening of the occupation numbers at the Fermi
  | level can be extrapolated back to zero broadening by an electron-gas inspired
  | formula. For all systems that are not real metals, this value can be
  | meaningless and should be avoided.

------------------------------------------------------------------------------
  Methods described in the following list of references were used in this FHI-aims run.
  If you publish the results, please make sure to cite these reference if they apply.
  FHI-aims is an academic code, and for our developers (often, Ph.D. students
  and postdocs), scientific credit in the community is essential.
  Thank you for helping us!

  For any use of FHI-aims, please cite:

    Volker Blum, Ralf Gehrke, Felix Hanke, Paula Havu, Ville Havu,
    Xinguo Ren, Karsten Reuter, and Matthias Scheffler
    'Ab initio molecular simulations with numeric atom-centered orbitals'
    Computer Physics Communications 180, 2175-2196 (2009)
    http://dx.doi.org/10.1016/j.cpc.2009.06.022


  The ELSI infrastructure was used in your run to solve the Kohn-Sham electronic structure.
  Please check out http://elsi-interchange.org to learn more.
  If scalability is important for your project, please acknowledge ELSI by citing:

    V. W-z. Yu, F. Corsetti, A. Garcia, W. P. Huhn, M. Jacquelin, W. Jia,
    B. Lange, L. Lin, J. Lu, W. Mi, A. Seifitokaldani, A. Vazquez-Mayagoitia,
    C. Yang, H. Yang, and V. Blum
    'ELSI: A unified software interface for Kohn-Sham electronic structure solvers'
    Computer Physics Communications 222, 267-285 (2018).
    http://dx.doi.org/10.1016/j.cpc.2017.09.007


  For the real-space grid partitioning and parallelization used in this calculation, please cite:

    Ville Havu, Volker Blum, Paula Havu, and Matthias Scheffler,
    'Efficient O(N) integration for all-electron electronic structure calculation'
    'using numerically tabulated basis functions'
    Journal of Computational Physics 228, 8367-8379 (2009).
    http://dx.doi.org/10.1016/j.jcp.2009.08.008

  Of course, there are many other important community references, e.g., those cited in the
  above references. Our list is limited to references that describe implementations in the
  FHI-aims code. The reason is purely practical (length of this list) - please credit others as well.

------------------------------------------------------------
          Leaving FHI-aims.
          Date     :  20210628, Time     :  160458.055

          Computational steps:
          | Number of self-consistency cycles          :           12
          | Number of SCF (re)initializations          :            1

          Detailed time accounting                     :  max(cpu_time)    wall_clock(cpu1)
          | Total time                                 :        2.858 s           2.865 s
          | Preparation time                           :        0.434 s           0.445 s
          | Boundary condition initalization           :        0.000 s           0.000 s
          | Grid partitioning                          :        0.089 s           0.090 s
          | Preloading free-atom quantities on grid    :        0.020 s           0.019 s
          | Free-atom superposition energy             :        0.005 s           0.005 s
          | Total time for integrations                :        0.838 s           0.840 s
          | Total time for solution of K.-S. equations :        0.152 s           0.150 s
          | Total time for density & force components  :        0.806 s           0.806 s
          | Total time for mixing                      :        0.023 s           0.024 s
          | Total time for Hartree multipole update    :        0.030 s           0.028 s
          | Total time for Hartree multipole sum       :        0.315 s           0.316 s
          | Total time for total energy evaluation     :        0.003 s           0.001 s
          | Total time NSC force correction            :        0.046 s           0.046 s
          | Total time for scaled ZORA corrections     :        0.000 s           0.000 s

          Partial memory accounting:
          | Residual value for overall tracked memory usage across tasks:     0.000000 MB (should be 0.000000 MB)
          | Peak values for overall tracked memory usage:
          |   Minimum:        5.550 MB (on task 36 after allocating hessian_basis_wave)
          |   Maximum:        5.772 MB (on task  0 after allocating hessian_basis_wave)
          |   Average:        5.688 MB
          | Largest tracked array allocation:
          |   Minimum:        2.664 MB (hessian_basis_wave on task 36)
          |   Maximum:        2.783 MB (hessian_basis_wave on task  0)
          |   Average:        2.741 MB
          Note:  These values currently only include a subset of arrays which are explicitly tracked.
          The "true" memory usage will be greater.

          Have a nice day.
------------------------------------------------------------
