------------------------------------------------------------
          Invoking FHI-aims ...

          When using FHI-aims, please cite the following reference:

            Volker Blum, Ralf Gehrke, Felix Hanke, Paula Havu,
            Ville Havu, Xinguo Ren, Karsten Reuter, and Matthias Scheffler,
            'Ab Initio Molecular Simulations with Numeric Atom-Centered Orbitals',
            Computer Physics Communications 180, 2175-2196 (2009)

          In addition, many other developments in FHI-aims are likely important for
          your particular application. A partial list of references is given at the end of
          this file. Thank you for giving credit to the authors of these developments.

          For any questions about FHI-aims, please visit our slack channel at

            https://fhi-aims.slack.com

          and our main development and support site at

            https://aims-git.rz-berlin.mpg.de .

          The latter site, in particular, has a wiki to collect information, as well
          as an issue tracker to log discussions, suggest improvements, and report issues
          or bugs. https://aims-git.rz-berlin.mpg.de is also the main development site
          of the project and all new and updated code versions can be obtained there.
          Please send an email to aims-coordinators@fhi-berlin.mpg.de and we will add
          you to these sites. They are for you and everyone is welcome there.

------------------------------------------------------------



  Date     :  20210323, Time     :  105011.454
  Time zero on CPU 1             :   0.137932000000000E+00  s.
  Internal wall clock time zero  :           385728611.454  s.

  FHI-aims created a unique identifier for this run for later identification
  aims_uuid : A249F4CA-488F-46FF-ADBC-7F058FCD98B9

  Build configuration of the current instance of FHI-aims
  -------------------------------------------------------
  FHI-aims version      : 210313
  Commit number         : f94121f93
  CMake host system     : Linux-4.12.14-122.57-default
  CMake version         : 3.5.2
  Fortran compiler      : /mpcdf/soft/SLE_12/packages/x86_64/intel_parallel_studio/2020.1/compilers_and_libraries_2020.1.217/linux/mpi/intel64/bin/mpiifort (Intel) version 19.1.0.20200306
  Fortran compiler flags: -O3 -ip -fp-model precise
  C compiler            : /mpcdf/soft/SLE_12/packages/x86_64/intel/19.1.1/bin/icc (Intel) version 19.1.0.20200306
  C compiler flags      : -O3 -ip -fp-model precise -std=gnu99
  C++ compiler          : /mpcdf/soft/SLE_12/packages/x86_64/intel/19.1.1/bin/icpc (Intel) version 19.1.0.20200306
  C++ compiler flags    : -O3 -ip -fp-model precise -std=gnu99
  Using MPI
  Using ScaLAPACK
  Using LibXC
  Using i-PI
  Using RLSY
  Linking against: /mpcdf/soft/SLE_12/packages/x86_64/intel_parallel_studio/2020.1/mkl/lib/intel64/libmkl_intel_lp64.so
                   /mpcdf/soft/SLE_12/packages/x86_64/intel_parallel_studio/2020.1/mkl/lib/intel64/libmkl_sequential.so
                   /mpcdf/soft/SLE_12/packages/x86_64/intel_parallel_studio/2020.1/mkl/lib/intel64/libmkl_core.so
                   /mpcdf/soft/SLE_12/packages/x86_64/intel_parallel_studio/2020.1/mkl/lib/intel64/libmkl_blacs_intelmpi_lp64.so
                   /mpcdf/soft/SLE_12/packages/x86_64/intel_parallel_studio/2020.1/mkl/lib/intel64/libmkl_scalapack_lp64.so

  Using      160 parallel tasks.
  Task        0 on host co4253 reporting.
  Task        1 on host co4253 reporting.
  Task        2 on host co4253 reporting.
  Task        3 on host co4253 reporting.
  Task        4 on host co4253 reporting.
  Task        5 on host co4253 reporting.
  Task        6 on host co4253 reporting.
  Task        7 on host co4253 reporting.
  Task        8 on host co4253 reporting.
  Task        9 on host co4253 reporting.
  Task       10 on host co4253 reporting.
  Task       11 on host co4253 reporting.
  Task       12 on host co4253 reporting.
  Task       13 on host co4253 reporting.
  Task       14 on host co4253 reporting.
  Task       15 on host co4253 reporting.
  Task       16 on host co4253 reporting.
  Task       17 on host co4253 reporting.
  Task       18 on host co4253 reporting.
  Task       19 on host co4253 reporting.
  Task       20 on host co4253 reporting.
  Task       21 on host co4253 reporting.
  Task       22 on host co4253 reporting.
  Task       23 on host co4253 reporting.
  Task       24 on host co4253 reporting.
  Task       25 on host co4253 reporting.
  Task       26 on host co4253 reporting.
  Task       27 on host co4253 reporting.
  Task       28 on host co4253 reporting.
  Task       29 on host co4253 reporting.
  Task       30 on host co4253 reporting.
  Task       31 on host co4253 reporting.
  Task       32 on host co4253 reporting.
  Task       33 on host co4253 reporting.
  Task       34 on host co4253 reporting.
  Task       35 on host co4253 reporting.
  Task       36 on host co4253 reporting.
  Task       37 on host co4253 reporting.
  Task       38 on host co4253 reporting.
  Task       39 on host co4253 reporting.
  Task       40 on host co4257 reporting.
  Task       41 on host co4257 reporting.
  Task       42 on host co4257 reporting.
  Task       43 on host co4257 reporting.
  Task       44 on host co4257 reporting.
  Task       45 on host co4257 reporting.
  Task       46 on host co4257 reporting.
  Task       47 on host co4257 reporting.
  Task       48 on host co4257 reporting.
  Task       49 on host co4257 reporting.
  Task       50 on host co4257 reporting.
  Task       51 on host co4257 reporting.
  Task       52 on host co4257 reporting.
  Task       53 on host co4257 reporting.
  Task       54 on host co4257 reporting.
  Task       55 on host co4257 reporting.
  Task       56 on host co4257 reporting.
  Task       57 on host co4257 reporting.
  Task       58 on host co4257 reporting.
  Task       59 on host co4257 reporting.
  Task       60 on host co4257 reporting.
  Task       61 on host co4257 reporting.
  Task       62 on host co4257 reporting.
  Task       63 on host co4257 reporting.
  Task       64 on host co4257 reporting.
  Task       65 on host co4257 reporting.
  Task       66 on host co4257 reporting.
  Task       67 on host co4257 reporting.
  Task       68 on host co4257 reporting.
  Task       69 on host co4257 reporting.
  Task       70 on host co4257 reporting.
  Task       71 on host co4257 reporting.
  Task       72 on host co4257 reporting.
  Task       73 on host co4257 reporting.
  Task       74 on host co4257 reporting.
  Task       75 on host co4257 reporting.
  Task       76 on host co4257 reporting.
  Task       77 on host co4257 reporting.
  Task       78 on host co4257 reporting.
  Task       79 on host co4257 reporting.
  Task       80 on host co4258 reporting.
  Task       81 on host co4258 reporting.
  Task       82 on host co4258 reporting.
  Task       83 on host co4258 reporting.
  Task       84 on host co4258 reporting.
  Task       85 on host co4258 reporting.
  Task       86 on host co4258 reporting.
  Task       87 on host co4258 reporting.
  Task       88 on host co4258 reporting.
  Task       89 on host co4258 reporting.
  Task       90 on host co4258 reporting.
  Task       91 on host co4258 reporting.
  Task       92 on host co4258 reporting.
  Task       93 on host co4258 reporting.
  Task       94 on host co4258 reporting.
  Task       95 on host co4258 reporting.
  Task       96 on host co4258 reporting.
  Task       97 on host co4258 reporting.
  Task       98 on host co4258 reporting.
  Task       99 on host co4258 reporting.
  Task      100 on host co4258 reporting.
  Task      101 on host co4258 reporting.
  Task      102 on host co4258 reporting.
  Task      103 on host co4258 reporting.
  Task      104 on host co4258 reporting.
  Task      105 on host co4258 reporting.
  Task      106 on host co4258 reporting.
  Task      107 on host co4258 reporting.
  Task      108 on host co4258 reporting.
  Task      109 on host co4258 reporting.
  Task      110 on host co4258 reporting.
  Task      111 on host co4258 reporting.
  Task      112 on host co4258 reporting.
  Task      113 on host co4258 reporting.
  Task      114 on host co4258 reporting.
  Task      115 on host co4258 reporting.
  Task      116 on host co4258 reporting.
  Task      117 on host co4258 reporting.
  Task      118 on host co4258 reporting.
  Task      119 on host co4258 reporting.
  Task      120 on host co4293 reporting.
  Task      121 on host co4293 reporting.
  Task      122 on host co4293 reporting.
  Task      123 on host co4293 reporting.
  Task      124 on host co4293 reporting.
  Task      125 on host co4293 reporting.
  Task      126 on host co4293 reporting.
  Task      127 on host co4293 reporting.
  Task      128 on host co4293 reporting.
  Task      129 on host co4293 reporting.
  Task      130 on host co4293 reporting.
  Task      131 on host co4293 reporting.
  Task      132 on host co4293 reporting.
  Task      133 on host co4293 reporting.
  Task      134 on host co4293 reporting.
  Task      135 on host co4293 reporting.
  Task      136 on host co4293 reporting.
  Task      137 on host co4293 reporting.
  Task      138 on host co4293 reporting.
  Task      139 on host co4293 reporting.
  Task      140 on host co4293 reporting.
  Task      141 on host co4293 reporting.
  Task      142 on host co4293 reporting.
  Task      143 on host co4293 reporting.
  Task      144 on host co4293 reporting.
  Task      145 on host co4293 reporting.
  Task      146 on host co4293 reporting.
  Task      147 on host co4293 reporting.
  Task      148 on host co4293 reporting.
  Task      149 on host co4293 reporting.
  Task      150 on host co4293 reporting.
  Task      151 on host co4293 reporting.
  Task      152 on host co4293 reporting.
  Task      153 on host co4293 reporting.
  Task      154 on host co4293 reporting.
  Task      155 on host co4293 reporting.
  Task      156 on host co4293 reporting.
  Task      157 on host co4293 reporting.
  Task      158 on host co4293 reporting.
  Task      159 on host co4293 reporting.

  Performing system and environment tests:
  | Environment variable OMP_NUM_THREADS correctly set to 1.
  | Checking for ScaLAPACK...
  | Testing pdtran()...
  | All pdtran() tests passed.

  Obtaining array dimensions for all initial allocations:
  
  -----------------------------------------------------------------------
  Parsing control.in (first pass over file, find array dimensions only).
  The contents of control.in will be repeated verbatim below
  unless switched off by setting 'verbatim_writeout .false.' .
  in the first line of control.in .
  -----------------------------------------------------------------------
  
  ##### Physical settings  ################
  xc                 pbe
  spin               none
  charge      0.0
  relativistic       atomic_zora scalar
  #elsi_restart read
  # SCF settings
  use_symmetric_forces .true.
  relax_geometry trm 1E-3
  
  #relax_unit_cell full
  #vdw_correction_hirshfeld
  harmonic_length_scale 0.09
  energy_tolerance  1E-3
  occupation_type gaussian       0.01
  # k-grid settings  (to be adjusted)
  k_grid  8 8 4
  #empty_states 8
  #use_dipole_correction
  #include_spin_orbit non_self_consistent
  
  mixer   pulay
  n_max_pulay        12 # high for metal
  charge_mix_param   0.1 #low for metal
  #many_body_dispersion_nl    beta=0.81 do_rpa=.true. rpa_rescale_eigs=.true. parallel_mode=k_points
  ################################################################################
  #
  #  FHI-aims code project
  # Volker Blum, Fritz Haber Institute Berlin, 2009
  #
  #  Suggested "tight" defaults for S atom (to be pasted into control.in file)
  #
  #  Revised Jan 04, 2011, following tests (SiC) done by Lydia Nemec:
  #     d and g functions of tier 2 now enabled by default.
  #
  ################################################################################
    species        S
  #     global species definitions
      nucleus             16
      mass                32.065
  #
      l_hartree           6
  #
      cut_pot             4.0          2.0  1.0
      basis_dep_cutoff    1e-4
  #
      radial_base         44 7.0
      radial_multiplier   2
      angular_grids       specified
        division   0.4665  110
        division   0.5810  194
        division   0.7139  302
        division   0.8274  434
  #      division   0.9105  590
  #      division   1.0975  770
  #      division   1.2028  974
  #      outer_grid  974
        outer_grid  434
  ################################################################################
  #
  #  Definition of "minimal" basis
  #
  ################################################################################
  #     valence basis states
      valence      3  s   2.
      valence      3  p   4.
  #     ion occupancy
      ion_occ      3  s   1.
      ion_occ      3  p   3.
  ################################################################################
  #
  #  Suggested additional basis functions. For production calculations,
  #  uncomment them one after another (the most important basis functions are
  #  listed first).
  #
  #  Constructed for dimers: 1.6 A, 1.9 A, 2.5 A, 3.25 A, 4.0 A
  #
  ################################################################################
  #  "First tier" - improvements: -652.81 meV to -45.53 meV
       ionic 3 d auto
       hydro 2 p 1.8
       hydro 4 f 7
       ionic 3 s auto
  #  "Second tier" - improvements: -30.20 meV to -1.74 meV
       hydro 4 d 6.2
       hydro 5 g 10.8
  #     hydro 4 p 4.9
  #     hydro 5 f 10
  #     hydro 1 s 0.8
  #  "Third tier" - improvements: -1.04 meV to -0.20 meV
  #     hydro 3 d 3.9
  #     hydro 3 d 2.7
  #     hydro 5 g 12
  #     hydro 4 p 10.4
  #     hydro 5 f 12.4
  #     hydro 2 s 1.9
  #  "Fourth tier" - improvements: -0.35 meV to -0.06 meV
  #     hydro 4 d 10.4
  #     hydro 4 p 7.2
  #     hydro 4 d 10
  #     hydro 5 g 19.2
  #     hydro 4 s 12
  
  ################################################################################
  #
  # For methods that use the localized form of the "resolution of identity" for
  # the two-electron Coulomb operator (RI_method LVL), particularly Hartree-Fock and
  # hybrid density functional calculations, the highest accuracy can be obtained by
  # uncommenting the line beginning with "for_aux"  below, thus adding an extra g radial
  # function to the construction of the product basis set for the expansion.
  # See Ref. New J. Phys. 17, 093020 (2015) for more information, particularly Figs. 1 and 6.
  #
  ################################################################################
  #
  # for_aux hydro 5 g 6.0
  ################################################################################
  #
  #  FHI-aims code project
  # Volker Blum, Fritz Haber Institute Berlin, 2009
  #
  #  Suggested "tight" defaults for Mo atom (to be pasted into control.in file)
  #
  ################################################################################
    species        Mo
  #     global species definitions
      nucleus             42
      mass                95.94
  #
      l_hartree           6
  #
      cut_pot             4.0  2.0  1.0
      basis_dep_cutoff    1e-4
  #
      radial_base         59 7.0
      radial_multiplier   2
      angular_grids specified
        division   0.3117   50
        division   0.6750  110
        division   1.0351  194
        division   1.2073  302
        division   1.6402  434
  #      division   1.9185  590
  #      division   2.0237  770
  #      division   2.0980  974
  #      division   2.7972 1202
  #      outer_grid  974
        outer_grid  434
  ################################################################################
  #
  #  Definition of "minimal" basis
  #
  ################################################################################
  #     valence basis states
      valence      5  s   1.
      valence      4  p   6.
      valence      4  d   5.
  #     ion occupancy
      ion_occ     5  s   0.
      ion_occ     4  p   6.
      ion_occ     4  d   4.
  ################################################################################
  #
  #  Suggested additional basis functions. For production calculations,
  #  uncomment them one after another (the most important basis functions are
  #  listed first).
  #
  #  Constructed for dimers: 1.675 A, 1.9 A, 2.375 A, 3.00 A, 4.00 A
  #
  ################################################################################
  #  "First tier"  - max. impr. -711.23  meV, min. impr. -21.07 meV
       hydro 4 f 8.4
       hydro 3 d 2.8
       ionic 5 p auto
       hydro 5 g 12
       ionic 5 s auto
  #  "Second tier" - max. impr. -39.38  meV, min. impr. -2.68 meV
  #     hydro 4 f 12.4
  #     hydro 3 d 3.3
  #     hydro 6 h 17.2
  #     hydro 4 f 7.6
  #     hydro 3 p 3.0
  #     hydro 1 s 0.65
  #  "Third tier"  - max. impr. -5.50 meV, min. impr. -0.47 meV
  #     hydro 4 f 29.2
  #     hydro 5 g 11.2
  #     hydro 3 d 6.8
  #     hydro 6 h 14.8
  #     hydro 2 p 2.3
  #     hydro 4 s 3.8
  #  "Fourth tier"  - max. impr. -0.58 meV, min. impr. -0.19 meV
  #     hydro 5 f 6.8
  #     hydro 5 d 14.8
  #     hydro 6 s 7.8
  #     hydro 5 g 20.8
  #     hydro 5 d 10.4
  #     hydro 5 p 9.8
  #  Further functions - -0.17 meV and below
  #     hydro 5 d 3.2
  
  -----------------------------------------------------------------------
  Completed first pass over input file control.in .
  -----------------------------------------------------------------------
  
  
  -----------------------------------------------------------------------
  Parsing geometry.in (first pass over file, find array dimensions only).
  The contents of geometry.in will be repeated verbatim below
  unless switched off by setting 'verbatim_writeout .false.' .
  in the first line of geometry.in .
  -----------------------------------------------------------------------
  
  #
  # This is the geometry file that corresponds to the current relaxation step.
  # If you do not want this file to be written, set the "write_restart_geometry" flag to .false.
  #  aims_uuid : 9D501A31-2D2C-4616-A6F1-3A779E777CBE
  #
  lattice_vector      3.08234366     -0.00000000     -0.00000000
  lattice_vector      0.00000000      3.08234366     -0.00000000
  lattice_vector     -0.00000000      0.00000000      3.08234366
  atom       0.00000000      0.00000000      0.00000000 Mo
  atom       1.54117183      1.54117183      1.54117183 Mo
  
  -----------------------------------------------------------------------
  Completed first pass over input file geometry.in .
  -----------------------------------------------------------------------
  

  Basic array size parameters:
  | Number of species                 :        2
  | Number of atoms                   :        2
  | Number of lattice vectors         :        3
  | Max. basis fn. angular momentum   :        4
  | Max. atomic/ionic basis occupied n:        5
  | Max. number of basis fn. types    :        3
  | Max. radial fns per species/type  :       10
  | Max. logarithmic grid size        :     1436
  | Max. radial integration grid size :      119
  | Max. angular integration grid size:      434
  | Max. angular grid division number :        8
  | Radial grid for Hartree potential :     1436
  | Number of spin channels           :        1

------------------------------------------------------------
          Reading file control.in.
------------------------------------------------------------
  XC: Using PBE gradient-corrected functionals.
  Spin treatment: No spin polarisation.
  Charge =   0.000000E+00: Neutral system requested explicitly.
  Scalar relativistic treatment of kinetic energy: on-site free-atom approximation to ZORA.
  Geometry relaxation: Modified BFGS - TRM (trust radius method) for lattice optimization.
  Convergence accuracy for geometry relaxation: Maximum force <   0.100000E-02 eV/A.
  Assuming qualitatively harmonic for steps shorter than   0.900000E-01 A.
  Max energy increase before discarding BFGS move:   0.100000E-02 eV
  Occupation type: Gaussian broadening, width =   0.100000E-01 eV.
  Found k-point grid:         8         8         4
  Using pulay charge density mixing.
  Pulay mixing - number of memorized iterations:   12
  Charge density mixing - mixing parameter:     0.1000
 
  Reading configuration options for species S                   .
  | Found nuclear charge :  16.0000
  | Found atomic mass :    32.0650000000000      amu
  | Found l_max for Hartree potential  :   6
  | Found cutoff potl. onset [A], width [A], scale factor :    4.00000    2.00000    1.00000
  | Threshold for basis-dependent cutoff potential is   0.100000E-03
  | Found data for basic radial integration grid :    44 points, outermost radius =    7.000 A
  | Found multiplier for basic radial grid :   2
  | Found angular grid specification: user-specified.
  | Specified grid contains     5 separate shells.
  | Check grid settings after all constraints further below.
  | Found free-atom valence shell :  3 s   2.000
  | Found free-atom valence shell :  3 p   4.000
  | Found free-ion valence shell :  3 s   1.000
  | Found free-ion valence shell :  3 p   3.000
  | Found ionic basis function :  3 d , default cutoff radius.
  | Found hydrogenic basis function :  2 p   1.800
  | Found hydrogenic basis function :  4 f   7.000
  | Found ionic basis function :  3 s , default cutoff radius.
  | Found hydrogenic basis function :  4 d   6.200
  | Found hydrogenic basis function :  5 g  10.800
  Species S                   : Missing cutoff potential type.
  Defaulting to exp(1/x)/(1-x)^2 type cutoff potential.
  Species S : No 'logarithmic' tag. Using default grid for free atom:
  | Default logarithmic grid data [bohr] : 0.1000E-03 0.1000E+03 0.1012E+01
  | Will include ionic basis functions of  2.0-fold positive S                    ion.
  Species S : On-site basis accuracy parameter (for Gram-Schmidt orthonormalisation) not specified.
  Using default value basis_acc =  0.1000000E-03.
  Species S                   : Using default innermost maximum threshold i_radial=  2 for radial functions.
  Species S                   : Default cutoff onset for free atom density etc. : 0.40000000E+01 AA.
  Species S                   : Basic radial grid will be enhanced according to radial_multiplier =   2, to contain    89 grid points.
 
  Reading configuration options for species Mo                  .
  | Found nuclear charge :  42.0000
  | Found atomic mass :    95.9400000000000      amu
  | Found l_max for Hartree potential  :   6
  | Found cutoff potl. onset [A], width [A], scale factor :    4.00000    2.00000    1.00000
  | Threshold for basis-dependent cutoff potential is   0.100000E-03
  | Found data for basic radial integration grid :    59 points, outermost radius =    7.000 A
  | Found multiplier for basic radial grid :   2
  | Found angular grid specification: user-specified.
  | Specified grid contains     6 separate shells.
  | Check grid settings after all constraints further below.
  | Found free-atom valence shell :  5 s   1.000
  | Found free-atom valence shell :  4 p   6.000
  | Found free-atom valence shell :  4 d   5.000
  | Found free-ion valence shell :  5 s   0.000
  | Found free-ion valence shell :  4 p   6.000
  | Found free-ion valence shell :  4 d   4.000
  | Found hydrogenic basis function :  4 f   8.400
  | Found hydrogenic basis function :  3 d   2.800
  | Found ionic basis function :  5 p , default cutoff radius.
  | Found hydrogenic basis function :  5 g  12.000
  | Found ionic basis function :  5 s , default cutoff radius.
  Species Mo                  : Missing cutoff potential type.
  Defaulting to exp(1/x)/(1-x)^2 type cutoff potential.
  Species Mo: No 'logarithmic' tag. Using default grid for free atom:
  | Default logarithmic grid data [bohr] : 0.1000E-03 0.1000E+03 0.1012E+01
  | Will include ionic basis functions of  2.0-fold positive Mo                   ion.
  Species Mo: On-site basis accuracy parameter (for Gram-Schmidt orthonormalisation) not specified.
  Using default value basis_acc =  0.1000000E-03.
  Species Mo                  : Using default innermost maximum threshold i_radial=  2 for radial functions.
  Species Mo                  : Default cutoff onset for free atom density etc. : 0.40000000E+01 AA.
  Species Mo                  : Basic radial grid will be enhanced according to radial_multiplier =   2, to contain   119 grid points.
 
  Finished reading input file 'control.in'.
 
------------------------------------------------------------


------------------------------------------------------------
          Reading geometry description geometry.in.
------------------------------------------------------------
  | The smallest distance between any two atoms is         2.66938791 AA.
  | The first atom of this pair is atom number                      1 .
  | The second atom of this pair is atom number                     2 .
  | Wigner-Seitz cell of the first atom image           0     0     0 .
  | (The Wigner-Seitz cell of the second atom is 0 0 0  by definition.)

  Symmetry information by spglib:
  | Precision set to  0.1E-04
  | Number of Operations  : 96
  | Space group           : 229
  | International         : Im-3m
  | Schoenflies           : Oh^9
  Input structure read successfully.
  The structure contains        2 atoms,  and a total of         84.000 electrons.

  Input geometry:
  | Unit cell:
  |        3.08234366        0.00000000        0.00000000
  |        0.00000000        3.08234366        0.00000000
  |        0.00000000        0.00000000        3.08234366
  | Atomic structure:
  |       Atom                x [A]            y [A]            z [A]
  |    1: Species Mo            0.00000000        0.00000000        0.00000000
  |    2: Species Mo            1.54117183        1.54117183        1.54117183

  Lattice parameters for 3D lattice (in Angstroms) :     3.082344    3.082344    3.082344
  Angle(s) between unit vectors (in degrees)       :    90.000000   90.000000   90.000000


  Quantities derived from the lattice vectors:
  | Reciprocal lattice vector 1:  2.038444  0.000000  0.000000
  | Reciprocal lattice vector 2:  0.000000  2.038444  0.000000
  | Reciprocal lattice vector 3:  0.000000  0.000000  2.038444
  | Unit cell volume                               :   0.292849E+02  A^3

  Fractional coordinates:
                         L1                L2                L3
       atom_frac         0.00000000        0.00000000        0.00000000  Mo
       atom_frac         0.50000000        0.50000000        0.50000000  Mo

 
  Finished reading input file 'control.in'.
 

------------------------------------------------------------
          Reading geometry description geometry.in.
------------------------------------------------------------
 
  Consistency checks for stacksize environment parameter are next.
 
  | Maximum stacksize for task 0: unlimited
  | Maximum stacksize for task 1: unlimited
  | Maximum stacksize for task 2: unlimited
  | Maximum stacksize for task 3: unlimited
  | Maximum stacksize for task 4: unlimited
  | Maximum stacksize for task 5: unlimited
  | Maximum stacksize for task 6: unlimited
  | Maximum stacksize for task 7: unlimited
  | Maximum stacksize for task 8: unlimited
  | Maximum stacksize for task 9: unlimited
  | Maximum stacksize for task 10: unlimited
  | Maximum stacksize for task 11: unlimited
  | Maximum stacksize for task 12: unlimited
  | Maximum stacksize for task 13: unlimited
  | Maximum stacksize for task 14: unlimited
  | Maximum stacksize for task 15: unlimited
  | Maximum stacksize for task 16: unlimited
  | Maximum stacksize for task 17: unlimited
  | Maximum stacksize for task 18: unlimited
  | Maximum stacksize for task 19: unlimited
  | Maximum stacksize for task 20: unlimited
  | Maximum stacksize for task 21: unlimited
  | Maximum stacksize for task 22: unlimited
  | Maximum stacksize for task 23: unlimited
  | Maximum stacksize for task 24: unlimited
  | Maximum stacksize for task 25: unlimited
  | Maximum stacksize for task 26: unlimited
  | Maximum stacksize for task 27: unlimited
  | Maximum stacksize for task 28: unlimited
  | Maximum stacksize for task 29: unlimited
  | Maximum stacksize for task 30: unlimited
  | Maximum stacksize for task 31: unlimited
  | Maximum stacksize for task 32: unlimited
  | Maximum stacksize for task 33: unlimited
  | Maximum stacksize for task 34: unlimited
  | Maximum stacksize for task 35: unlimited
  | Maximum stacksize for task 36: unlimited
  | Maximum stacksize for task 37: unlimited
  | Maximum stacksize for task 38: unlimited
  | Maximum stacksize for task 39: unlimited
  | Maximum stacksize for task 40: unlimited
  | Maximum stacksize for task 41: unlimited
  | Maximum stacksize for task 42: unlimited
  | Maximum stacksize for task 43: unlimited
  | Maximum stacksize for task 44: unlimited
  | Maximum stacksize for task 45: unlimited
  | Maximum stacksize for task 46: unlimited
  | Maximum stacksize for task 47: unlimited
  | Maximum stacksize for task 48: unlimited
  | Maximum stacksize for task 49: unlimited
  | Maximum stacksize for task 50: unlimited
  | Maximum stacksize for task 51: unlimited
  | Maximum stacksize for task 52: unlimited
  | Maximum stacksize for task 53: unlimited
  | Maximum stacksize for task 54: unlimited
  | Maximum stacksize for task 55: unlimited
  | Maximum stacksize for task 56: unlimited
  | Maximum stacksize for task 57: unlimited
  | Maximum stacksize for task 58: unlimited
  | Maximum stacksize for task 59: unlimited
  | Maximum stacksize for task 60: unlimited
  | Maximum stacksize for task 61: unlimited
  | Maximum stacksize for task 62: unlimited
  | Maximum stacksize for task 63: unlimited
  | Maximum stacksize for task 64: unlimited
  | Maximum stacksize for task 65: unlimited
  | Maximum stacksize for task 66: unlimited
  | Maximum stacksize for task 67: unlimited
  | Maximum stacksize for task 68: unlimited
  | Maximum stacksize for task 69: unlimited
  | Maximum stacksize for task 70: unlimited
  | Maximum stacksize for task 71: unlimited
  | Maximum stacksize for task 72: unlimited
  | Maximum stacksize for task 73: unlimited
  | Maximum stacksize for task 74: unlimited
  | Maximum stacksize for task 75: unlimited
  | Maximum stacksize for task 76: unlimited
  | Maximum stacksize for task 77: unlimited
  | Maximum stacksize for task 78: unlimited
  | Maximum stacksize for task 79: unlimited
  | Maximum stacksize for task 80: unlimited
  | Maximum stacksize for task 81: unlimited
  | Maximum stacksize for task 82: unlimited
  | Maximum stacksize for task 83: unlimited
  | Maximum stacksize for task 84: unlimited
  | Maximum stacksize for task 85: unlimited
  | Maximum stacksize for task 86: unlimited
  | Maximum stacksize for task 87: unlimited
  | Maximum stacksize for task 88: unlimited
  | Maximum stacksize for task 89: unlimited
  | Maximum stacksize for task 90: unlimited
  | Maximum stacksize for task 91: unlimited
  | Maximum stacksize for task 92: unlimited
  | Maximum stacksize for task 93: unlimited
  | Maximum stacksize for task 94: unlimited
  | Maximum stacksize for task 95: unlimited
  | Maximum stacksize for task 96: unlimited
  | Maximum stacksize for task 97: unlimited
  | Maximum stacksize for task 98: unlimited
  | Maximum stacksize for task 99: unlimited
  | Maximum stacksize for task 100: unlimited
  | Maximum stacksize for task 101: unlimited
  | Maximum stacksize for task 102: unlimited
  | Maximum stacksize for task 103: unlimited
  | Maximum stacksize for task 104: unlimited
  | Maximum stacksize for task 105: unlimited
  | Maximum stacksize for task 106: unlimited
  | Maximum stacksize for task 107: unlimited
  | Maximum stacksize for task 108: unlimited
  | Maximum stacksize for task 109: unlimited
  | Maximum stacksize for task 110: unlimited
  | Maximum stacksize for task 111: unlimited
  | Maximum stacksize for task 112: unlimited
  | Maximum stacksize for task 113: unlimited
  | Maximum stacksize for task 114: unlimited
  | Maximum stacksize for task 115: unlimited
  | Maximum stacksize for task 116: unlimited
  | Maximum stacksize for task 117: unlimited
  | Maximum stacksize for task 118: unlimited
  | Maximum stacksize for task 119: unlimited
  | Maximum stacksize for task 120: unlimited
  | Maximum stacksize for task 121: unlimited
  | Maximum stacksize for task 122: unlimited
  | Maximum stacksize for task 123: unlimited
  | Maximum stacksize for task 124: unlimited
  | Maximum stacksize for task 125: unlimited
  | Maximum stacksize for task 126: unlimited
  | Maximum stacksize for task 127: unlimited
  | Maximum stacksize for task 128: unlimited
  | Maximum stacksize for task 129: unlimited
  | Maximum stacksize for task 130: unlimited
  | Maximum stacksize for task 131: unlimited
  | Maximum stacksize for task 132: unlimited
  | Maximum stacksize for task 133: unlimited
  | Maximum stacksize for task 134: unlimited
  | Maximum stacksize for task 135: unlimited
  | Maximum stacksize for task 136: unlimited
  | Maximum stacksize for task 137: unlimited
  | Maximum stacksize for task 138: unlimited
  | Maximum stacksize for task 139: unlimited
  | Maximum stacksize for task 140: unlimited
  | Maximum stacksize for task 141: unlimited
  | Maximum stacksize for task 142: unlimited
  | Maximum stacksize for task 143: unlimited
  | Maximum stacksize for task 144: unlimited
  | Maximum stacksize for task 145: unlimited
  | Maximum stacksize for task 146: unlimited
  | Maximum stacksize for task 147: unlimited
  | Maximum stacksize for task 148: unlimited
  | Maximum stacksize for task 149: unlimited
  | Maximum stacksize for task 150: unlimited
  | Maximum stacksize for task 151: unlimited
  | Maximum stacksize for task 152: unlimited
  | Maximum stacksize for task 153: unlimited
  | Maximum stacksize for task 154: unlimited
  | Maximum stacksize for task 155: unlimited
  | Maximum stacksize for task 156: unlimited
  | Maximum stacksize for task 157: unlimited
  | Maximum stacksize for task 158: unlimited
  | Maximum stacksize for task 159: unlimited
  | Current stacksize for task 0: unlimited
  | Current stacksize for task 1: unlimited
  | Current stacksize for task 2: unlimited
  | Current stacksize for task 3: unlimited
  | Current stacksize for task 4: unlimited
  | Current stacksize for task 5: unlimited
  | Current stacksize for task 6: unlimited
  | Current stacksize for task 7: unlimited
  | Current stacksize for task 8: unlimited
  | Current stacksize for task 9: unlimited
  | Current stacksize for task 10: unlimited
  | Current stacksize for task 11: unlimited
  | Current stacksize for task 12: unlimited
  | Current stacksize for task 13: unlimited
  | Current stacksize for task 14: unlimited
  | Current stacksize for task 15: unlimited
  | Current stacksize for task 16: unlimited
  | Current stacksize for task 17: unlimited
  | Current stacksize for task 18: unlimited
  | Current stacksize for task 19: unlimited
  | Current stacksize for task 20: unlimited
  | Current stacksize for task 21: unlimited
  | Current stacksize for task 22: unlimited
  | Current stacksize for task 23: unlimited
  | Current stacksize for task 24: unlimited
  | Current stacksize for task 25: unlimited
  | Current stacksize for task 26: unlimited
  | Current stacksize for task 27: unlimited
  | Current stacksize for task 28: unlimited
  | Current stacksize for task 29: unlimited
  | Current stacksize for task 30: unlimited
  | Current stacksize for task 31: unlimited
  | Current stacksize for task 32: unlimited
  | Current stacksize for task 33: unlimited
  | Current stacksize for task 34: unlimited
  | Current stacksize for task 35: unlimited
  | Current stacksize for task 36: unlimited
  | Current stacksize for task 37: unlimited
  | Current stacksize for task 38: unlimited
  | Current stacksize for task 39: unlimited
  | Current stacksize for task 40: unlimited
  | Current stacksize for task 41: unlimited
  | Current stacksize for task 42: unlimited
  | Current stacksize for task 43: unlimited
  | Current stacksize for task 44: unlimited
  | Current stacksize for task 45: unlimited
  | Current stacksize for task 46: unlimited
  | Current stacksize for task 47: unlimited
  | Current stacksize for task 48: unlimited
  | Current stacksize for task 49: unlimited
  | Current stacksize for task 50: unlimited
  | Current stacksize for task 51: unlimited
  | Current stacksize for task 52: unlimited
  | Current stacksize for task 53: unlimited
  | Current stacksize for task 54: unlimited
  | Current stacksize for task 55: unlimited
  | Current stacksize for task 56: unlimited
  | Current stacksize for task 57: unlimited
  | Current stacksize for task 58: unlimited
  | Current stacksize for task 59: unlimited
  | Current stacksize for task 60: unlimited
  | Current stacksize for task 61: unlimited
  | Current stacksize for task 62: unlimited
  | Current stacksize for task 63: unlimited
  | Current stacksize for task 64: unlimited
  | Current stacksize for task 65: unlimited
  | Current stacksize for task 66: unlimited
  | Current stacksize for task 67: unlimited
  | Current stacksize for task 68: unlimited
  | Current stacksize for task 69: unlimited
  | Current stacksize for task 70: unlimited
  | Current stacksize for task 71: unlimited
  | Current stacksize for task 72: unlimited
  | Current stacksize for task 73: unlimited
  | Current stacksize for task 74: unlimited
  | Current stacksize for task 75: unlimited
  | Current stacksize for task 76: unlimited
  | Current stacksize for task 77: unlimited
  | Current stacksize for task 78: unlimited
  | Current stacksize for task 79: unlimited
  | Current stacksize for task 80: unlimited
  | Current stacksize for task 81: unlimited
  | Current stacksize for task 82: unlimited
  | Current stacksize for task 83: unlimited
  | Current stacksize for task 84: unlimited
  | Current stacksize for task 85: unlimited
  | Current stacksize for task 86: unlimited
  | Current stacksize for task 87: unlimited
  | Current stacksize for task 88: unlimited
  | Current stacksize for task 89: unlimited
  | Current stacksize for task 90: unlimited
  | Current stacksize for task 91: unlimited
  | Current stacksize for task 92: unlimited
  | Current stacksize for task 93: unlimited
  | Current stacksize for task 94: unlimited
  | Current stacksize for task 95: unlimited
  | Current stacksize for task 96: unlimited
  | Current stacksize for task 97: unlimited
  | Current stacksize for task 98: unlimited
  | Current stacksize for task 99: unlimited
  | Current stacksize for task 100: unlimited
  | Current stacksize for task 101: unlimited
  | Current stacksize for task 102: unlimited
  | Current stacksize for task 103: unlimited
  | Current stacksize for task 104: unlimited
  | Current stacksize for task 105: unlimited
  | Current stacksize for task 106: unlimited
  | Current stacksize for task 107: unlimited
  | Current stacksize for task 108: unlimited
  | Current stacksize for task 109: unlimited
  | Current stacksize for task 110: unlimited
  | Current stacksize for task 111: unlimited
  | Current stacksize for task 112: unlimited
  | Current stacksize for task 113: unlimited
  | Current stacksize for task 114: unlimited
  | Current stacksize for task 115: unlimited
  | Current stacksize for task 116: unlimited
  | Current stacksize for task 117: unlimited
  | Current stacksize for task 118: unlimited
  | Current stacksize for task 119: unlimited
  | Current stacksize for task 120: unlimited
  | Current stacksize for task 121: unlimited
  | Current stacksize for task 122: unlimited
  | Current stacksize for task 123: unlimited
  | Current stacksize for task 124: unlimited
  | Current stacksize for task 125: unlimited
  | Current stacksize for task 126: unlimited
  | Current stacksize for task 127: unlimited
  | Current stacksize for task 128: unlimited
  | Current stacksize for task 129: unlimited
  | Current stacksize for task 130: unlimited
  | Current stacksize for task 131: unlimited
  | Current stacksize for task 132: unlimited
  | Current stacksize for task 133: unlimited
  | Current stacksize for task 134: unlimited
  | Current stacksize for task 135: unlimited
  | Current stacksize for task 136: unlimited
  | Current stacksize for task 137: unlimited
  | Current stacksize for task 138: unlimited
  | Current stacksize for task 139: unlimited
  | Current stacksize for task 140: unlimited
  | Current stacksize for task 141: unlimited
  | Current stacksize for task 142: unlimited
  | Current stacksize for task 143: unlimited
  | Current stacksize for task 144: unlimited
  | Current stacksize for task 145: unlimited
  | Current stacksize for task 146: unlimited
  | Current stacksize for task 147: unlimited
  | Current stacksize for task 148: unlimited
  | Current stacksize for task 149: unlimited
  | Current stacksize for task 150: unlimited
  | Current stacksize for task 151: unlimited
  | Current stacksize for task 152: unlimited
  | Current stacksize for task 153: unlimited
  | Current stacksize for task 154: unlimited
  | Current stacksize for task 155: unlimited
  | Current stacksize for task 156: unlimited
  | Current stacksize for task 157: unlimited
  | Current stacksize for task 158: unlimited
  | Current stacksize for task 159: unlimited
 
  Consistency checks for the contents of control.in are next.
 
  MPI_IN_PLACE appears to work with this MPI implementation.
  | Keeping use_mpi_in_place .true. (see manual).
  Target number of points in a grid batch is not set. Defaulting to  100
  Method for grid partitioning is not set. Defaulting to parallel hash+maxmin partitioning.
  Batch size limit is not set. Defaulting to    200
  By default, will store active basis functions for each batch.
  If in need of memory, prune_basis_once .false. can be used to disable this option.
  communication_type for Hartree potential was not specified.
  Defaulting to calc_hartree .
  Pulay mixer: Number of initial linear mixing iterations not set.
  Defaulting to    0 iterations.
  Work space size for distributed Hartree potential not set.
  Defaulting to   0.200000E+03 MB.
  Algorithm-dependent basis array size parameters:
  | n_max_pulay                         :       12
  Maximum number of self-consistency iterations not provided.
  Presetting  1000 iterations.
  Presetting      1001 iterations before the initial mixing cycle
  is restarted anyway using the sc_init_iter criterion / keyword.
  Presetting a factor      1.000 between actual scf density residual
  and density convergence criterion sc_accuracy_rho below which sc_init_iter
  takes no effect.
 * No s.c.f. convergence criteria (sc_accuracy_*) were provided in control.in.
 * The run will proceed with a reasonable default guess, but please check whether.
 * the s.c.f. cycles seem to take too much or too little time.
  No maximum number of relaxation steps, defaulting to     1000
  Default initial Hessian is Lindh matrix (thres = 15.00) plus  0.200000E+01 eV/A^2 times unity.
  Maximum energy tolerance by which TRM/BFGS trajectory may increase over multiple steps:   0.300000E-02
  No trust radius initializer. Defaulting to   0.200000E+00 A.
 * Notice: The s.c.f. convergence criterion sc_accuracy_rho was not provided.
 * We used to stop in this case, and ask the user to provide reasonable
 * scf convergence criteria. However, this led some users to employ criteria
 * that led to extremely long run times, e.g., for simple relaxation.
 * We now preset a default value for sc_accuracy_rho if it is not set.
 * You may still wish to check if this setting is too tight or too loose for your needs.
 * Based on n_atoms, FHI-aims chose sc_accuracy_rho =  0.100000E-05 .
  Force calculation: scf convergence accuracy of forces not set.
  Defaulting to 'sc_accuracy_forces not_checked'.
  Handling of forces: Unphysical translation and rotation will be removed from forces.
  No accuracy limit for integral partition fn. given. Defaulting to  0.1000E-14.
  No threshold value for u(r) in integrations given. Defaulting to  0.1000E-05.
  No accuracy for occupation numbers given. Defaulting to  0.1000E-12.
  No threshold value for occupation numbers given. Defaulting to  0.0000E+00.
  No accuracy for fermi level given. Defaulting to  0.1000E-19.
  Maximum # of iterations to find E_F not set. Defaulting to  200.
  Preferred method for the eigenvalue solver ('KS_method') not specified in 'control.in'.
  Defaulting to serial version, LAPACK (via ELSI), since more k-points than CPUs available.
  Will not use alltoall communication since running on < 1024 CPUs.
  Threshold for basis singularities not set.
  Default threshold for basis singularities:  0.1000E-04
  partition_type (choice of integration weights) for integrals was not specified.
  | Using a version of the partition function of Stratmann and coworkers ('stratmann_sparse').
  | At each grid point, the set of atoms used to build the partition table is smoothly restricted to
  | only those atoms whose free-atom density would be non-zero at that grid point.
  Partitioning for Hartree potential was not defined. Using partition_type for integrals.
  | Adjusted default value of keyword multip_moments_threshold to:       0.10000000E-11
  | This value may affect high angular momentum components of the Hartree potential in periodic systems.
  Angular momentum expansion for Kerker preconditioner not set explicitly.
  | Using default value of   0
  No explicit requirement for turning off preconditioner.
  | By default, it will be turned off when the charge convergence reaches
  | sc_accuracy_rho  =   0.100000E-05
  No special mixing parameter while Kerker preconditioner is on.
  Using default: charge_mix_param =     0.1000.
  No q(lm)/r^(l+1) cutoff set for long-range Hartree potential.
  | Using default value of  0.100000E-09 .
  | Verify using the multipole_threshold keyword.
  Defaulting to new monopole extrapolation.
  Density update method: automatic selection selected.
  Using density matrix based charge density update.
  Using density matrix based charge density update.
  Using packed matrix style: index .
  Geometry relaxation: A file "geometry.in.next_step" is written out by default after each step.
  | This file contains the geometry of the current relaxation step as well as
  | the current Hessian matrix needed to restart the relaxation algorithm.
  | If you do not want part or all of this information, use the keywords
  | "write_restart_geometry" or "hessian_to_restart_geometry" to switch the output off.
  Defaulting to use time-reversal symmetry for k-point grid.
  Charge integration errors on the 3D integration grid will be compensated
  by explicit normalization and distribution of residual charges.
  Use the "compensate_multipole_errors" flag to change this behaviour.
  Set 'collect_eigenvectors' to be '.true.' for all serial calculations. This is mandatory.
  Set 'collect_eigenvectors' to be '.true.' for KS_method lapack_fast and serial.
 
  Consistency checks for the contents of geometry.in are next.
 

  Range separation radius for Ewald summation (hartree_convergence_parameter):      3.45918746 bohr.
  Number of empty states per atom not set in control.in - providing a guess from actual geometry.
  | Total number of empty states used during s.c.f. cycle:       11
  If you use a very high smearing, use empty_states (per atom!) in control.in to increase this value.

  Structure-dependent array size parameters: 
  | Maximum number of distinct radial functions  :       26
  | Maximum number of basis functions            :       98
  | Number of Kohn-Sham states (occupied + empty):       53
------------------------------------------------------------

------------------------------------------------------------
          Preparing all fixed parts of the calculation.
------------------------------------------------------------
  Determining machine precision:
    2.225073858507201E-308
  Setting up grids for atomic and cluster calculations.

  Creating wave function, potential, and density for free atoms.

  Species: S

  List of occupied orbitals and eigenvalues:
    n    l              occ      energy [Ha]    energy [eV]
    1    0           2.0000       -88.680731     -2413.1255
    2    0           2.0000        -7.781719      -211.7513
    3    0           2.0000        -0.633662       -17.2428
    2    1           6.0000        -5.751976      -156.5192
    3    1           4.0000        -0.257086        -6.9957


  Species: Mo

  List of occupied orbitals and eigenvalues:
    n    l              occ      energy [Ha]    energy [eV]
    1    0           2.0000      -745.344654    -20281.8600
    2    0           2.0000      -103.288246     -2810.6162
    3    0           2.0000       -17.516687      -476.6533
    4    0           2.0000        -2.358559       -64.1796
    5    0           1.0000        -0.145159        -3.9500
    2    1           6.0000       -92.308627     -2511.8455
    3    1           6.0000       -13.936005      -379.2180
    4    1           6.0000        -1.408138       -38.3174
    3    2          10.0000        -8.119011      -220.9295
    4    2           5.0000        -0.132984        -3.6187


  Adding cutoff potential to free-atom effective potential.
  Creating fixed part of basis set: Ionic, confined, hydrogenic.
 
  S                    ion:

  List of free ionic orbitals and eigenvalues:
    n    l      energy [Ha]    energy [eV]
    1    0       -89.703778     -2440.9640
    2    0        -8.775428      -238.7916
    3    0        -1.470343       -40.0101
    2    1        -6.747660      -183.6132
    3    1        -1.048627       -28.5346


  List of ionic basis orbitals and eigenvalues:
    n    l      energy [Ha]    energy [eV]    outer radius [A]
    3    2        -0.495605       -13.4861       5.386362
    3    0        -1.470336       -40.0099       3.967934

 
  S                    hydrogenic:
 
  List of hydrogenic basis orbitals: 
    n    l      effective z      eigenvalue [eV]  inner max. [A]     outer max. [A]     outer radius [A]   
    2    1         1.800000       -11.0118           1.168531           1.168531           5.452614
    4    3         7.000000       -41.6672           1.212182           1.212182           5.066981
    4    2         6.200000       -32.6848           0.582121           1.814567           5.386362
    5    4        10.800000       -63.4785           1.227092           1.227092           4.766538
 
 
  Mo                   ion:

  List of free ionic orbitals and eigenvalues:
    n    l      energy [Ha]    energy [eV]
    1    0      -746.048685    -20301.0176
    2    0      -103.980912     -2829.4646
    3    0       -18.206601      -495.4268
    4    0        -3.040545       -82.7374
    2    1       -93.001013     -2530.6863
    3    1       -14.625827      -397.9890
    4    1        -2.084855       -56.7318
    3    2        -8.808854      -239.7011
    4    2        -0.765435       -20.8285


  List of ionic basis orbitals and eigenvalues:
    n    l      energy [Ha]    energy [eV]    outer radius [A]
    5    1        -0.465587       -12.6693       5.456393
    5    0        -0.650331       -17.6964       5.390095

 
  Mo                   hydrogenic:
 
  List of hydrogenic basis orbitals: 
    n    l      effective z      eigenvalue [eV]  inner max. [A]     outer max. [A]     outer radius [A]   
    4    3         8.400000       -60.0010           1.009788           1.009788           4.487018
    3    2         2.800000       -11.8048           1.687401           1.687401           5.456393
    5    4        12.000000       -78.3687           1.100005           1.100005           4.432498
 
  Creating atomic-like basis functions for current effective potential.

  Species S                   :

  List of atomic basis orbitals and eigenvalues:
    n    l      energy [Ha]    energy [eV]    outer radius [A]
    1    0       -88.680731     -2413.1255       0.682391
    2    0        -7.781719      -211.7513       2.289014
    3    0        -0.633662       -17.2428       5.256262
    2    1        -5.751976      -156.5192       2.555240
    3    1        -0.257086        -6.9957       5.386362


  Species Mo                  :

  List of atomic basis orbitals and eigenvalues:
    n    l      energy [Ha]    energy [eV]    outer radius [A]
    1    0      -745.344654    -20281.8600       0.247552
    2    0      -103.288246     -2810.6162       0.682864
    3    0       -17.516687      -476.6533       1.626637
    4    0        -2.358559       -64.1796       4.220963
    5    0        -0.145159        -3.9500       5.456393
    2    1       -92.308627     -2511.8455       0.699766
    3    1       -13.936005      -379.2180       1.793761
    4    1        -1.408138       -38.3174       4.828511
    3    2        -8.119011      -220.9295       2.181285
    4    2        -0.132984        -3.6187       5.390095

  Assembling full basis from fixed parts.
  | Species S :   atomic orbital   1 s accepted.
  | Species S :   atomic orbital   2 s accepted.
  | Species S :    ionic orbital   3 s accepted.
  | Species S :   atomic orbital   3 s accepted.
  | Species S :   atomic orbital   2 p accepted.
  | Species S :   atomic orbital   3 p accepted.
  | Species S :    hydro orbital   2 p accepted.
  | Species S :    ionic orbital   3 d accepted.
  | Species S :    hydro orbital   4 d accepted.
  | Species S :    hydro orbital   4 f accepted.
  | Species S :    hydro orbital   5 g accepted.
  | Species Mo :   atomic orbital   1 s accepted.
  | Species Mo :   atomic orbital   2 s accepted.
  | Species Mo :   atomic orbital   3 s accepted.
  | Species Mo :   atomic orbital   4 s accepted.
  | Species Mo :    ionic orbital   5 s accepted.
  | Species Mo :   atomic orbital   5 s accepted.
  | Species Mo :   atomic orbital   2 p accepted.
  | Species Mo :   atomic orbital   3 p accepted.
  | Species Mo :   atomic orbital   4 p accepted.
  | Species Mo :    ionic orbital   5 p accepted.
  | Species Mo :   atomic orbital   3 d accepted.
  | Species Mo :   atomic orbital   4 d accepted.
  | Species Mo :    hydro orbital   3 d accepted.
  | Species Mo :    hydro orbital   4 f accepted.
  | Species Mo :    hydro orbital   5 g accepted.
 
  Basis size parameters after reduction:
  | Total number of radial functions:       26
  | Total number of basis functions :       98
 
  Per-task memory consumption for arrays in subroutine allocate_ext:
  |           9.561824MB.
  Testing on-site integration grid accuracy.
  |  Species  Function  <phi|h_atom|phi> (log., in eV)  <phi|h_atom|phi> (rad., in eV)
           1        1              -2413.1254568977              -2413.1254096663
           1        2               -211.7513411281               -211.7513404762
           1        3                -16.9725280787                -16.9725279206
           1        4                  7.6024436204                  7.6024549059
           1        5               -156.5192206929               -156.5192205451
           1        6                 -6.9959757887                 -6.9959777655
           1        7                  6.8896462808                  6.8895564741
           1        8                  6.0214250550                  6.0214220200
           1        9                 19.6206468977                 19.6206494558
           1       10                 24.7008710786                 24.7008710738
           1       11                 47.5292252001                 47.5292260486
           2       12             -20281.8599610543             -20281.8584300616
           2       13              -2810.6161812280              -2810.6161551921
           2       14               -476.6533163555               -476.6533136395
           2       15                -64.1796433667                -64.1796426456
           2       16                 -3.3691762756                 -3.3691802887
           2       17                  4.4704608512                  4.4699102345
           2       18              -2511.8455406047              -2511.8455385741
           2       19               -379.2179896350               -379.2179882338
           2       20                -38.3173891619                -38.3173886619
           2       21                  0.2493245095                  0.2492931069
           2       22               -220.9295301098               -220.9295297081
           2       23                 -3.6195697699                 -3.6195754704
           2       24                  7.1428000922                  7.1426882355
           2       25                 23.3975871087                 23.3975871819
           2       26                 50.2449608881                 50.2449608586

  Preparing densities etc. for the partition functions (integrals / Hartree potential).

  Preparations completed.
  max(cpu_time)          :      0.448 s.
  Wall clock time (cpu1) :      0.520 s.
------------------------------------------------------------

------------------------------------------------------------
          Begin self-consistency loop: Initialization.

          Date     :  20210323, Time     :  105012.217
------------------------------------------------------------

  Initializing index lists of integration centers etc. from given atomic structure:
  Mapping all atomic coordinates to central unit cell.

  Initializing the k-points
  Using symmetry for reducing the k-points
  | k-points reduced from:      256 to      132
  | Number of k-points                             :       132
  The eigenvectors in the calculations are COMPLEX.
  | K-points in task   0:         0
  | K-points in task   1:         1
  | K-points in task   2:         1
  | K-points in task   3:         1
  | K-points in task   4:         1
  | K-points in task   5:         1
  | K-points in task   6:         1
  | K-points in task   7:         1
  | K-points in task   8:         1
  | K-points in task   9:         1
  | K-points in task  10:         1
  | K-points in task  11:         1
  | K-points in task  12:         1
  | K-points in task  13:         1
  | K-points in task  14:         1
  | K-points in task  15:         1
  | K-points in task  16:         1
  | K-points in task  17:         1
  | K-points in task  18:         1
  | K-points in task  19:         1
  | K-points in task  20:         1
  | K-points in task  21:         1
  | K-points in task  22:         1
  | K-points in task  23:         1
  | K-points in task  24:         1
  | K-points in task  25:         1
  | K-points in task  26:         1
  | K-points in task  27:         1
  | K-points in task  28:         1
  | K-points in task  29:         1
  | K-points in task  30:         1
  | K-points in task  31:         1
  | K-points in task  32:         1
  | K-points in task  33:         1
  | K-points in task  34:         1
  | K-points in task  35:         1
  | K-points in task  36:         1
  | K-points in task  37:         1
  | K-points in task  38:         1
  | K-points in task  39:         1
  | K-points in task  40:         1
  | K-points in task  41:         1
  | K-points in task  42:         1
  | K-points in task  43:         1
  | K-points in task  44:         1
  | K-points in task  45:         1
  | K-points in task  46:         1
  | K-points in task  47:         1
  | K-points in task  48:         1
  | K-points in task  49:         1
  | K-points in task  50:         1
  | K-points in task  51:         1
  | K-points in task  52:         1
  | K-points in task  53:         1
  | K-points in task  54:         1
  | K-points in task  55:         1
  | K-points in task  56:         1
  | K-points in task  57:         1
  | K-points in task  58:         1
  | K-points in task  59:         1
  | K-points in task  60:         1
  | K-points in task  61:         1
  | K-points in task  62:         1
  | K-points in task  63:         1
  | K-points in task  64:         1
  | K-points in task  65:         1
  | K-points in task  66:         1
  | K-points in task  67:         1
  | K-points in task  68:         1
  | K-points in task  69:         1
  | K-points in task  70:         1
  | K-points in task  71:         1
  | K-points in task  72:         1
  | K-points in task  73:         1
  | K-points in task  74:         1
  | K-points in task  75:         1
  | K-points in task  76:         1
  | K-points in task  77:         1
  | K-points in task  78:         1
  | K-points in task  79:         1
  | K-points in task  80:         1
  | K-points in task  81:         1
  | K-points in task  82:         1
  | K-points in task  83:         1
  | K-points in task  84:         1
  | K-points in task  85:         1
  | K-points in task  86:         1
  | K-points in task  87:         1
  | K-points in task  88:         1
  | K-points in task  89:         1
  | K-points in task  90:         1
  | K-points in task  91:         1
  | K-points in task  92:         1
  | K-points in task  93:         1
  | K-points in task  94:         1
  | K-points in task  95:         1
  | K-points in task  96:         1
  | K-points in task  97:         1
  | K-points in task  98:         1
  | K-points in task  99:         1
  | K-points in task 100:         1
  | K-points in task 101:         1
  | K-points in task 102:         1
  | K-points in task 103:         1
  | K-points in task 104:         1
  | K-points in task 105:         1
  | K-points in task 106:         1
  | K-points in task 107:         1
  | K-points in task 108:         1
  | K-points in task 109:         1
  | K-points in task 110:         1
  | K-points in task 111:         1
  | K-points in task 112:         1
  | K-points in task 113:         1
  | K-points in task 114:         1
  | K-points in task 115:         1
  | K-points in task 116:         1
  | K-points in task 117:         1
  | K-points in task 118:         1
  | K-points in task 119:         1
  | K-points in task 120:         1
  | K-points in task 121:         1
  | K-points in task 122:         1
  | K-points in task 123:         1
  | K-points in task 124:         1
  | K-points in task 125:         1
  | K-points in task 126:         1
  | K-points in task 127:         1
  | K-points in task 128:         1
  | K-points in task 129:         1
  | K-points in task 130:         1
  | K-points in task 131:         1
  | K-points in task 132:         1
  | K-points in task 133:         0
  | K-points in task 134:         0
  | K-points in task 135:         0
  | K-points in task 136:         0
  | K-points in task 137:         0
  | K-points in task 138:         0
  | K-points in task 139:         0
  | K-points in task 140:         0
  | K-points in task 141:         0
  | K-points in task 142:         0
  | K-points in task 143:         0
  | K-points in task 144:         0
  | K-points in task 145:         0
  | K-points in task 146:         0
  | K-points in task 147:         0
  | K-points in task 148:         0
  | K-points in task 149:         0
  | K-points in task 150:         0
  | K-points in task 151:         0
  | K-points in task 152:         0
  | K-points in task 153:         0
  | K-points in task 154:         0
  | K-points in task 155:         0
  | K-points in task 156:         0
  | K-points in task 157:         0
  | K-points in task 158:         0
  | K-points in task 159:         0
  | Number of basis functions in the Hamiltonian integrals :      4369
  | Number of basis functions in a single unit cell        :        98
  | Number of centers in hartree potential         :      1014
  | Number of centers in hartree multipole         :       700
  | Number of centers in electron density summation:       484
  | Number of centers in basis integrals           :       544
  | Number of centers in integrals                 :       145
  | Number of centers in hamiltonian               :       484
  | Consuming        581 KiB for k_phase.
  | Number of super-cells (origin) [n_cells]                     :        2197
  | Number of super-cells (after PM_index) [n_cells]             :         282
  | Number of super-cells in hamiltonian [n_cells_in_hamiltonian]:         282
  | Size of matrix packed + index [n_hamiltonian_matrix_size] :      498887

  Initializing relaxation algorithms.
  Finished initialization of distributed Hessian storage.
  | Global dimension:         6
  | BLACS block size:         1
  | Number of workers:        6

  | Estimated reciprocal-space cutoff momentum G_max:         2.84528403 bohr^-1 .
  | Reciprocal lattice points for long-range Hartree potential:      80
  Partitioning the integration grid into batches with parallel hashing+maxmin method.
  | Number of batches:      710
  | Maximal batch size:     106
  | Minimal batch size:      46
  | Average batch size:      70.406
  | Standard deviation of batch sizes:      12.597

  Integration load balanced across   160 MPI tasks.
  Work distribution over tasks is as follows:
  Task     0 has        335 integration points.
  Task     1 has        357 integration points.
  Task     2 has        328 integration points.
  Task     3 has        328 integration points.
  Task     4 has        313 integration points.
  Task     5 has        336 integration points.
  Task     6 has        277 integration points.
  Task     7 has        333 integration points.
  Task     8 has        292 integration points.
  Task     9 has        275 integration points.
  Task    10 has        286 integration points.
  Task    11 has        300 integration points.
  Task    12 has        278 integration points.
  Task    13 has        281 integration points.
  Task    14 has        277 integration points.
  Task    15 has        357 integration points.
  Task    16 has        285 integration points.
  Task    17 has        289 integration points.
  Task    18 has        281 integration points.
  Task    19 has        300 integration points.
  Task    20 has        310 integration points.
  Task    21 has        295 integration points.
  Task    22 has        277 integration points.
  Task    23 has        298 integration points.
  Task    24 has        332 integration points.
  Task    25 has        280 integration points.
  Task    26 has        275 integration points.
  Task    27 has        364 integration points.
  Task    28 has        280 integration points.
  Task    29 has        283 integration points.
  Task    30 has        306 integration points.
  Task    31 has        325 integration points.
  Task    32 has        299 integration points.
  Task    33 has        320 integration points.
  Task    34 has        298 integration points.
  Task    35 has        331 integration points.
  Task    36 has        288 integration points.
  Task    37 has        282 integration points.
  Task    38 has        315 integration points.
  Task    39 has        312 integration points.
  Task    40 has        325 integration points.
  Task    41 has        282 integration points.
  Task    42 has        277 integration points.
  Task    43 has        355 integration points.
  Task    44 has        317 integration points.
  Task    45 has        359 integration points.
  Task    46 has        362 integration points.
  Task    47 has        353 integration points.
  Task    48 has        286 integration points.
  Task    49 has        296 integration points.
  Task    50 has        290 integration points.
  Task    51 has        309 integration points.
  Task    52 has        328 integration points.
  Task    53 has        351 integration points.
  Task    54 has        315 integration points.
  Task    55 has        324 integration points.
  Task    56 has        314 integration points.
  Task    57 has        278 integration points.
  Task    58 has        340 integration points.
  Task    59 has        352 integration points.
  Task    60 has        298 integration points.
  Task    61 has        324 integration points.
  Task    62 has        317 integration points.
  Task    63 has        316 integration points.
  Task    64 has        314 integration points.
  Task    65 has        300 integration points.
  Task    66 has        312 integration points.
  Task    67 has        298 integration points.
  Task    68 has        314 integration points.
  Task    69 has        336 integration points.
  Task    70 has        305 integration points.
  Task    71 has        287 integration points.
  Task    72 has        301 integration points.
  Task    73 has        305 integration points.
  Task    74 has        320 integration points.
  Task    75 has        358 integration points.
  Task    76 has        327 integration points.
  Task    77 has        303 integration points.
  Task    78 has        332 integration points.
  Task    79 has        317 integration points.
  Task    80 has        277 integration points.
  Task    81 has        276 integration points.
  Task    82 has        334 integration points.
  Task    83 has        316 integration points.
  Task    84 has        288 integration points.
  Task    85 has        359 integration points.
  Task    86 has        319 integration points.
  Task    87 has        315 integration points.
  Task    88 has        357 integration points.
  Task    89 has        318 integration points.
  Task    90 has        304 integration points.
  Task    91 has        295 integration points.
  Task    92 has        334 integration points.
  Task    93 has        300 integration points.
  Task    94 has        331 integration points.
  Task    95 has        338 integration points.
  Task    96 has        284 integration points.
  Task    97 has        318 integration points.
  Task    98 has        323 integration points.
  Task    99 has        359 integration points.
  Task   100 has        331 integration points.
  Task   101 has        333 integration points.
  Task   102 has        281 integration points.
  Task   103 has        297 integration points.
  Task   104 has        294 integration points.
  Task   105 has        334 integration points.
  Task   106 has        283 integration points.
  Task   107 has        314 integration points.
  Task   108 has        310 integration points.
  Task   109 has        321 integration points.
  Task   110 has        317 integration points.
  Task   111 has        282 integration points.
  Task   112 has        350 integration points.
  Task   113 has        278 integration points.
  Task   114 has        312 integration points.
  Task   115 has        293 integration points.
  Task   116 has        277 integration points.
  Task   117 has        312 integration points.
  Task   118 has        318 integration points.
  Task   119 has        289 integration points.
  Task   120 has        358 integration points.
  Task   121 has        276 integration points.
  Task   122 has        361 integration points.
  Task   123 has        301 integration points.
  Task   124 has        327 integration points.
  Task   125 has        293 integration points.
  Task   126 has        354 integration points.
  Task   127 has        303 integration points.
  Task   128 has        336 integration points.
  Task   129 has        279 integration points.
  Task   130 has        315 integration points.
  Task   131 has        322 integration points.
  Task   132 has        336 integration points.
  Task   133 has        338 integration points.
  Task   134 has        320 integration points.
  Task   135 has        325 integration points.
  Task   136 has        321 integration points.
  Task   137 has        309 integration points.
  Task   138 has        279 integration points.
  Task   139 has        278 integration points.
  Task   140 has        303 integration points.
  Task   141 has        359 integration points.
  Task   142 has        296 integration points.
  Task   143 has        278 integration points.
  Task   144 has        333 integration points.
  Task   145 has        324 integration points.
  Task   146 has        355 integration points.
  Task   147 has        290 integration points.
  Task   148 has        309 integration points.
  Task   149 has        361 integration points.
  Task   150 has        291 integration points.
  Task   151 has        274 integration points.
  Task   152 has        307 integration points.
  Task   153 has        300 integration points.
  Task   154 has        325 integration points.
  Task   155 has        322 integration points.
  Task   156 has        302 integration points.
  Task   157 has        336 integration points.
  Task   158 has        317 integration points.
  Task   159 has        329 integration points.
  Initializing partition tables, free-atom densities, potentials, etc. across the integration grid (initialize_grid_storage).
  | initialize_grid_storage: Actual outermost partition radius vs. multipole_radius_free
  | (-- VB: in principle, multipole_radius_free should be larger, hence this output)
  | Species        1: Confinement radius =              6.000000000000000 AA, multipole_radius_free =              6.012827091137924 AA.
  | Species        1: outer_partition_radius set to              6.012827091137924 AA .
  | Species        2: Confinement radius =              6.000000000000000 AA, multipole_radius_free =              6.016994434057369 AA.
  | Species        2: outer_partition_radius set to              6.016994434057369 AA .
  | The sparse table of interatomic distances needs       2829.19 kbyte instead of      2367.49 kbyte of memory.
  | Using the partition_type stratmann_smoother will reduce your memory usage.
  | Net number of integration points:    49988
  | of which are non-zero points    :    36760
  | Numerical average free-atom electrostatic potential    :    -32.44964932 eV
  Renormalizing the initial density to the exact electron count on the 3D integration grid.
  | Initial density: Formal number of electrons (from input files) :      84.0000000000
  | Integrated number of electrons on 3D grid     :      84.0001016939
  | Charge integration error                      :       0.0001016939
  | Normalization factor for density and gradient :       0.9999987894
  Renormalizing the free-atom superposition density to the exact electron count on the 3D integration grid.
  | Formal number of electrons (from input files) :      84.0000000000
  | Integrated number of electrons on 3D grid     :      84.0001016939
  | Charge integration error                      :       0.0001016939
  | Normalization factor for density and gradient :       0.9999987894
  Obtaining max. number of non-zero basis functions in each batch (get_n_compute_maxes).
  | Maximal number of non-zero basis functions:     1590 in task     0
  | Maximal number of non-zero basis functions:     1645 in task     1
  | Maximal number of non-zero basis functions:     1584 in task     2
  | Maximal number of non-zero basis functions:     1588 in task     3
  | Maximal number of non-zero basis functions:     1615 in task     4
  | Maximal number of non-zero basis functions:     1606 in task     5
  | Maximal number of non-zero basis functions:     1624 in task     6
  | Maximal number of non-zero basis functions:     1607 in task     7
  | Maximal number of non-zero basis functions:     1611 in task     8
  | Maximal number of non-zero basis functions:     1609 in task     9
  | Maximal number of non-zero basis functions:     1540 in task    10
  | Maximal number of non-zero basis functions:     1626 in task    11
  | Maximal number of non-zero basis functions:     1604 in task    12
  | Maximal number of non-zero basis functions:     1556 in task    13
  | Maximal number of non-zero basis functions:     1670 in task    14
  | Maximal number of non-zero basis functions:     1666 in task    15
  | Maximal number of non-zero basis functions:     1638 in task    16
  | Maximal number of non-zero basis functions:     1614 in task    17
  | Maximal number of non-zero basis functions:     1621 in task    18
  | Maximal number of non-zero basis functions:     1655 in task    19
  | Maximal number of non-zero basis functions:     1605 in task    20
  | Maximal number of non-zero basis functions:     1590 in task    21
  | Maximal number of non-zero basis functions:     1579 in task    22
  | Maximal number of non-zero basis functions:     1614 in task    23
  | Maximal number of non-zero basis functions:     1618 in task    24
  | Maximal number of non-zero basis functions:     1653 in task    25
  | Maximal number of non-zero basis functions:     1590 in task    26
  | Maximal number of non-zero basis functions:     1617 in task    27
  | Maximal number of non-zero basis functions:     1600 in task    28
  | Maximal number of non-zero basis functions:     1566 in task    29
  | Maximal number of non-zero basis functions:     1618 in task    30
  | Maximal number of non-zero basis functions:     1617 in task    31
  | Maximal number of non-zero basis functions:     1589 in task    32
  | Maximal number of non-zero basis functions:     1593 in task    33
  | Maximal number of non-zero basis functions:     1637 in task    34
  | Maximal number of non-zero basis functions:     1610 in task    35
  | Maximal number of non-zero basis functions:     1609 in task    36
  | Maximal number of non-zero basis functions:     1617 in task    37
  | Maximal number of non-zero basis functions:     1603 in task    38
  | Maximal number of non-zero basis functions:     1589 in task    39
  | Maximal number of non-zero basis functions:     1620 in task    40
  | Maximal number of non-zero basis functions:     1588 in task    41
  | Maximal number of non-zero basis functions:     1607 in task    42
  | Maximal number of non-zero basis functions:     1641 in task    43
  | Maximal number of non-zero basis functions:     1575 in task    44
  | Maximal number of non-zero basis functions:     1604 in task    45
  | Maximal number of non-zero basis functions:     1603 in task    46
  | Maximal number of non-zero basis functions:     1581 in task    47
  | Maximal number of non-zero basis functions:     1598 in task    48
  | Maximal number of non-zero basis functions:     1550 in task    49
  | Maximal number of non-zero basis functions:     1589 in task    50
  | Maximal number of non-zero basis functions:     1566 in task    51
  | Maximal number of non-zero basis functions:     1640 in task    52
  | Maximal number of non-zero basis functions:     1577 in task    53
  | Maximal number of non-zero basis functions:     1623 in task    54
  | Maximal number of non-zero basis functions:     1620 in task    55
  | Maximal number of non-zero basis functions:     1605 in task    56
  | Maximal number of non-zero basis functions:     1624 in task    57
  | Maximal number of non-zero basis functions:     1655 in task    58
  | Maximal number of non-zero basis functions:     1594 in task    59
  | Maximal number of non-zero basis functions:     1621 in task    60
  | Maximal number of non-zero basis functions:     1586 in task    61
  | Maximal number of non-zero basis functions:     1655 in task    62
  | Maximal number of non-zero basis functions:     1635 in task    63
  | Maximal number of non-zero basis functions:     1602 in task    64
  | Maximal number of non-zero basis functions:     1559 in task    65
  | Maximal number of non-zero basis functions:     1645 in task    66
  | Maximal number of non-zero basis functions:     1630 in task    67
  | Maximal number of non-zero basis functions:     1554 in task    68
  | Maximal number of non-zero basis functions:     1618 in task    69
  | Maximal number of non-zero basis functions:     1605 in task    70
  | Maximal number of non-zero basis functions:     1669 in task    71
[...]

  ESTIMATED overall HOMO-LUMO gap:      0.04855992 eV between HOMO at k-point 5 and LUMO at k-point 2
  | This appears to be an indirect band gap.
  | Smallest direct gap :      0.39321328 eV for k_point 34 at    0.125000    0.625000    0.000000 (in units of recip. lattice)
  However, the gap value is rather small. Since we use a finite k-point grid,
  this material is most likely metallic (in the sense that there are states
  at or near the Fermi level). A DOS and/or band structure plot is required
  for an unambiguous distinction.

  Total energy components:
  | Sum of eigenvalues            :       -4943.75737026 Ha     -134526.48267694 eV
  | XC energy correction          :        -248.59612161 Ha       -6764.64465024 eV
  | XC potential correction       :         324.00892599 Ha        8816.73146657 eV
  | Free-atom electrostatic energy:       -3314.64794854 Ha      -90196.15980975 eV
  | Hartree energy correction     :           7.30218892 Ha         198.70267035 eV
  | Entropy correction            :          -0.00000002 Ha          -0.00000044 eV
  | ---------------------------
  | Total energy                  :       -8175.69032550 Ha     -222471.85300001 eV
  | Total energy, T -> 0          :       -8175.69032551 Ha     -222471.85300045 eV  <-- do not rely on this value for anything but (periodic) metals
  | Electronic free energy        :       -8175.69032553 Ha     -222471.85300089 eV

  Derived energy quantities:
  | Kinetic energy                :        8431.13388853 Ha      229422.82601166 eV
  | Electrostatic energy          :      -16358.22809242 Ha     -445130.03436143 eV
  | Energy correction for multipole
  | error in Hartree potential    :          -0.00015588 Ha          -0.00424168 eV
  | Sum of eigenvalues per atom                           :      -67263.24133847 eV
  | Total energy (T->0) per atom                          :     -111235.92650022 eV  <-- do not rely on this value for anything but (periodic) metals
  | Electronic free energy per atom                       :     -111235.92650044 eV

  atomic forces [eV/Ang]:
  -----------------------
  atom #    1
   Hellmann-Feynman              :  0.936174E-05  0.539361E-04  0.169879E-04
   Ionic forces                  :  0.000000E+00  0.000000E+00  0.000000E+00
   Multipole                     : -0.383099E-09 -0.238856E-08 -0.960035E-09
   Pulay + GGA                   : -0.109259E-03 -0.942188E-04 -0.525911E-04
   ----------------------------------------------------------------
   Total forces(   1)            : -0.998979E-04 -0.402851E-04 -0.356042E-04
  atom #    2
   Hellmann-Feynman              : -0.488301E-05 -0.414898E-04 -0.165792E-04
   Ionic forces                  :  0.000000E+00  0.000000E+00  0.000000E+00
   Multipole                     :  0.388561E-09  0.242564E-08  0.888873E-09
   Pulay + GGA                   :  0.480668E-04 -0.980304E-04  0.502278E-04
   ----------------------------------------------------------------
   Total forces(   2)            :  0.431841E-04 -0.139518E-03  0.336495E-04

  Symmetry information by spglib:
  | Precision set to  0.1E-04
  | Number of Operations  : 96
  | Space group           : 229
  | International         : Im-3m
  | Schoenflies           : Oh^9
  | Symmetrizing total forces.


  Self-consistency convergence accuracy:
  | Change of charge density      :  0.7963E-06
  | Change of sum of eigenvalues  : -0.1754E-03 eV
  | Change of total energy        : -0.2970E-08 eV
  | Change of forces              :  0.5150E-04 eV/A

  Writing Kohn-Sham eigenvalues.
  K-point:       1 at    0.000000    0.000000    0.000000 (in units of recip. lattice)

  State    Occupation    Eigenvalue [Ha]    Eigenvalue [eV]
      1       2.00000        -745.490035       -20285.81599
      2       2.00000        -745.490035       -20285.81599
      3       2.00000        -103.445580        -2814.89745
      4       2.00000        -103.445580        -2814.89745
      5       2.00000         -92.465174        -2516.10542
      6       2.00000         -92.465174        -2516.10542
      7       2.00000         -92.465174        -2516.10541
      8       2.00000         -92.465174        -2516.10541
      9       2.00000         -92.465005        -2516.10081
     10       2.00000         -92.465005        -2516.10081
     11       2.00000         -17.669802         -480.81979
     12       2.00000         -17.669802         -480.81979
     13       2.00000         -14.089151         -383.38532
     14       2.00000         -14.089151         -383.38532
     15       2.00000         -14.089151         -383.38532
     16       2.00000         -14.089151         -383.38532
     17       2.00000         -14.089070         -383.38311
     18       2.00000         -14.089070         -383.38311
     19       2.00000          -8.273856         -225.14307
     20       2.00000          -8.273856         -225.14306
     21       2.00000          -8.273731         -225.13966
     22       2.00000          -8.273730         -225.13966
     23       2.00000          -8.272709         -225.11185
     24       2.00000          -8.272708         -225.11183
     25       2.00000          -8.272663         -225.11062
     26       2.00000          -8.272663         -225.11062
     27       2.00000          -8.272663         -225.11060
     28       2.00000          -8.272663         -225.11060
     29       2.00000          -2.517455          -68.50344
     30       2.00000          -2.496129          -67.92314
     31       2.00000          -1.571255          -42.75602
     32       2.00000          -1.571186          -42.75413
     33       2.00000          -1.571186          -42.75413
     34       2.00000          -1.528249          -41.58578
     35       2.00000          -1.528176          -41.58377
     36       2.00000          -1.528176          -41.58377
     37       2.00000          -0.536972          -14.61174
     38       2.00000          -0.483131          -13.14667
     39       2.00000          -0.483031          -13.14396
     40       2.00000          -0.318861           -8.67664
     41       2.00000          -0.318861           -8.67664
     42       2.00000          -0.318804           -8.67509
     43       0.00000          -0.198155           -5.39207
     44       0.00000          -0.198122           -5.39117
     45       0.00000          -0.103550           -2.81774
     46       0.00000          -0.103550           -2.81774
     47       0.00000          -0.103471           -2.81560
     48       0.00000           0.092282            2.51111
     49       0.00000           0.092377            2.51371
     50       0.00000           0.092377            2.51371
     51       0.00000           0.358989            9.76860
     52       0.00000           0.359113            9.77197
     53       0.00000           0.359113            9.77197

  What follows are estimated values for band gap, HOMO, LUMO, etc.
  | They are estimated on a discrete k-point grid and not necessarily exact.
  | For converged numbers, create a DOS and/or band structure plot on a denser k-grid.

  Highest occupied state (VBM) at     -7.20406153 eV (relative to internal zero)
  | Occupation number:      1.99966220
  | K-point:       5 at    0.000000    0.125000    0.250000 (in units of recip. lattice)

  Lowest unoccupied state (CBM) at    -7.15550160 eV (relative to internal zero)
  | Occupation number:      0.00102721
  | K-point:       2 at    0.000000    0.000000    0.250000 (in units of recip. lattice)

  ESTIMATED overall HOMO-LUMO gap:      0.04855992 eV between HOMO at k-point 5 and LUMO at k-point 2
  | This appears to be an indirect band gap.
  | Smallest direct gap :      0.39321328 eV for k_point 34 at    0.125000    0.625000    0.000000 (in units of recip. lattice)
  However, the gap value is rather small. Since we use a finite k-point grid,
  this material is most likely metallic (in the sense that there are states
  at or near the Fermi level). A DOS and/or band structure plot is required
  for an unambiguous distinction.

  Self-consistency cycle converged.

  End self-consistency iteration #    23       :  max(cpu_time)    wall_clock(cpu1)
  | Time for this iteration                    :        0.387 s           0.390 s
  | Charge density & force component update    :        0.000 s           0.000 s
  | Density mixing                             :        0.000 s           0.000 s
  | Hartree multipole update                   :        0.002 s           0.002 s
  | Hartree multipole summation                :        0.171 s           0.171 s
  | Integration                                :        0.190 s           0.190 s
  | Solution of K.-S. eqns.                    :        0.011 s           0.011 s
  | Total energy evaluation                    :        0.010 s           0.016 s

  Partial memory accounting:
  | Current value for overall tracked memory usage:
  |   Minimum:        6.306 MB (on task   0)
  |   Maximum:        6.385 MB (on task   1)
  |   Average:        6.371 MB
  | Peak value for overall tracked memory usage:
  |   Minimum:       48.597 MB (on task 116 after allocating d_wave)
  |   Maximum:       54.674 MB (on task  14 after allocating d_wave)
  |   Average:       52.054 MB
  | Largest tracked array allocation so far:
  |   Minimum:       17.627 MB (hamiltonian_shell on task 116)
  |   Maximum:       21.278 MB (hamiltonian_shell on task  14)
  |   Average:       19.698 MB
  Note:  These values currently only include a subset of arrays which are explicitly tracked.
  The "true" memory usage will be greater.
------------------------------------------------------------
  Removing unitary transformations (pure translations, rotations) from forces on atoms.
  Atomic forces before filtering:
  | Net force on center of mass :   0.000000E+00  0.000000E+00  0.000000E+00 eV/A
  Atomic forces after filtering:
  | Net force on center of mass :   0.000000E+00  0.000000E+00  0.000000E+00 eV/A

  Energy and forces in a compact form:
  | Total energy uncorrected      :         -0.222471853000009E+06 eV
  | Total energy corrected        :         -0.222471853000448E+06 eV  <-- do not rely on this value for anything but (periodic) metals
  | Electronic free energy        :         -0.222471853000887E+06 eV
  Total atomic forces (unitary forces cleaned) [eV/Ang]:
  |    1          0.000000000000000E+00          0.000000000000000E+00          0.000000000000000E+00
  |    2          0.000000000000000E+00          0.000000000000000E+00          0.000000000000000E+00

  ------------------------------------ 
  Start decomposition of the XC Energy 
  ------------------------------------ 
  X and C from original XC functional choice 
  Hartree-Fock Energy :          0.000000000 Ha              0.000000000 eV
  X Energy            :       -244.169800281 Ha          -6644.198318722 eV
  C Energy            :         -4.426321326 Ha           -120.446331518 eV
  Total XC Energy     :       -248.596121606 Ha          -6764.644650241 eV
  ------------------------------------ 
  LDA X and C from self-consistent density 
  X Energy LDA        :       -232.315679869 Ha          -6321.631290294 eV
  C Energy LDA        :         -7.831193775 Ha           -213.097624909 eV
  ------------------------------------ 
  End decomposition of the XC Energy 
  ------------------------------------ 

------------------------------------------------------------
  Relaxation / MD: End force evaluation.       :  max(cpu_time)    wall_clock(cpu1)
  | Time for this force evaluation             :       16.894 s          17.160 s

------------------------------------------------------------
  Geometry optimization: Attempting to predict improved coordinates.

  Removing unitary transformations (pure translations, rotations) from forces on atoms.
  Atomic forces before filtering:
  | Net force on center of mass :   0.000000E+00  0.000000E+00  0.000000E+00 eV/A
  Atomic forces after filtering:
  | Net force on center of mass :   0.000000E+00  0.000000E+00  0.000000E+00 eV/A
  Net remaining forces (excluding translations, rotations) in present geometry:
  || Forces on atoms   || =   0.000000E+00 eV/A.
  Maximum force component is  0.000000E+00 eV/A.
  Present geometry is converged.

------------------------------------------------------------
  Final atomic structure:
                         x [A]             y [A]             z [A]
  lattice_vector         3.08234366        0.00000000        0.00000000
  lattice_vector         0.00000000        3.08234366        0.00000000
  lattice_vector         0.00000000        0.00000000        3.08234366

            atom         0.00000000        0.00000000        0.00000000  Mo
            atom         1.54117183        1.54117183        1.54117183  Mo

  Fractional coordinates:
                         L1                L2                L3
       atom_frac         0.00000000        0.00000000        0.00000000  Mo
       atom_frac         0.50000000        0.50000000        0.50000000  Mo
------------------------------------------------------------

------------------------------------------------------------------------------
  Final output of selected total energy values:

  The following output summarizes some interesting total energy values
  at the end of a run (AFTER all relaxation, molecular dynamics, etc.).

  | Total energy of the DFT / Hartree-Fock s.c.f. calculation      :        -222471.853000009 eV
  | Final zero-broadening corrected energy (caution - metals only) :        -222471.853000448 eV
  | For reference only, the value of 1 Hartree used in FHI-aims is :             27.211384500 eV
  | For reference only, the overall average (free atom contribution
  | + realspace contribution) of the electrostatic potential after
  | s.c.f. convergence is                                          :            -33.689816450 eV

  Before relying on these values, please be sure to understand exactly which
  total energy value is referred to by a given number. Different objects may
  all carry the same name 'total energy'. Definitions:

  Total energy of the DFT / Hartree-Fock s.c.f. calculation:
  | Note that this energy does not include ANY quantities calculated after the
  | s.c.f. cycle, in particular not ANY RPA, MP2, etc. many-body perturbation terms.

  Final zero-broadening corrected energy:
  | For metallic systems only, a broadening of the occupation numbers at the Fermi
  | level can be extrapolated back to zero broadening by an electron-gas inspired
  | formula. For all systems that are not real metals, this value can be
  | meaningless and should be avoided.

------------------------------------------------------------------------------
  Methods described in the following list of references were used in this FHI-aims run.
  If you publish the results, please make sure to cite these reference if they apply.
  FHI-aims is an academic code, and for our developers (often, Ph.D. students
  and postdocs), scientific credit in the community is essential.
  Thank you for helping us!

  For any use of FHI-aims, please cite:

    Volker Blum, Ralf Gehrke, Felix Hanke, Paula Havu, Ville Havu,
    Xinguo Ren, Karsten Reuter, and Matthias Scheffler
    'Ab initio molecular simulations with numeric atom-centered orbitals'
    Computer Physics Communications 180, 2175-2196 (2009)
    http://dx.doi.org/10.1016/j.cpc.2009.06.022


  The provided symmetry information was generated with SPGlib:

    Atsushi Togo, Yusuke Seto, Dimitar Pashov
    SPGlib 1.7.3 obtained from http://spglib.sourceforge.net
    Copyright (C) 2008 Atsushi Togo


  The ELSI infrastructure was used in your run to solve the Kohn-Sham electronic structure.
  Please check out http://elsi-interchange.org to learn more.
  If scalability is important for your project, please acknowledge ELSI by citing:

    V. W-z. Yu, F. Corsetti, A. Garcia, W. P. Huhn, M. Jacquelin, W. Jia,
    B. Lange, L. Lin, J. Lu, W. Mi, A. Seifitokaldani, A. Vazquez-Mayagoitia,
    C. Yang, H. Yang, and V. Blum
    'ELSI: A unified software interface for Kohn-Sham electronic structure solvers'
    Computer Physics Communications 222, 267-285 (2018).
    http://dx.doi.org/10.1016/j.cpc.2017.09.007


  For the real-space grid partitioning and parallelization used in this calculation, please cite:

    Ville Havu, Volker Blum, Paula Havu, and Matthias Scheffler,
    'Efficient O(N) integration for all-electron electronic structure calculation'
    'using numerically tabulated basis functions'
    Journal of Computational Physics 228, 8367-8379 (2009).
    http://dx.doi.org/10.1016/j.jcp.2009.08.008

  Of course, there are many other important community references, e.g., those cited in the
  above references. Our list is limited to references that describe implementations in the
  FHI-aims code. The reason is purely practical (length of this list) - please credit others as well.

 * A warning was issued further up regarding the CPU load.
   Some CPUs do not participate in the eigenvalue solution.
   In corner cases, this may be the correct behavior. Otherwise,
   consider using a scalapack/elpa version of the code for a parallel treatment.

------------------------------------------------------------
          Leaving FHI-aims.
          Date     :  20210323, Time     :  105029.460

          Computational steps:
          | Number of self-consistency cycles          :           23
          | Number of SCF (re)initializations          :            1
          | Number of relaxation steps                 :            0

          Detailed time accounting                     :  max(cpu_time)    wall_clock(cpu1)
          | Total time                                 :       17.581 s          18.006 s
          | Preparation time                           :        0.448 s           0.520 s
          | Boundary condition initalization           :        0.114 s           0.125 s
          | Grid partitioning                          :        0.050 s           0.044 s
          | Preloading free-atom quantities on grid    :        0.079 s           0.099 s
          | Free-atom superposition energy             :        0.009 s           0.014 s
          | Total time for integrations                :        4.789 s           4.814 s
          | Total time for solution of K.-S. equations :        0.464 s           0.476 s
          | Total time for EV reorthonormalization     :        0.000 s           0.000 s
          | Total time for density & force components  :        9.714 s           9.722 s
          | Total time for mixing & preconditioning    :        0.391 s           0.388 s
          | Total time for Hartree multipole update    :        0.048 s           0.053 s
          | Total time for Hartree multipole sum       :        1.141 s           1.151 s
          | Total time for total energy evaluation     :        0.025 s           0.037 s
          | Total time for scaled ZORA corrections     :        0.000 s           0.000 s

          Partial memory accounting:
          | Residual value for overall tracked memory usage across tasks:     0.000000 MB (should be 0.000000 MB)
          | Peak values for overall tracked memory usage:
          |   Minimum:       48.597 MB (on task 116 after allocating d_wave)
          |   Maximum:       54.674 MB (on task  14 after allocating d_wave)
          |   Average:       52.054 MB
          | Largest tracked array allocation:
          |   Minimum:       17.627 MB (hamiltonian_shell on task 116)
          |   Maximum:       21.278 MB (hamiltonian_shell on task  14)
          |   Average:       19.698 MB
          Note:  These values currently only include a subset of arrays which are explicitly tracked.
          The "true" memory usage will be greater.

          Have a nice day.
------------------------------------------------------------
