------------------------------------------------------------
          Invoking FHI-aims ...

          When using FHI-aims, please cite the following reference:

            Volker Blum, Ralf Gehrke, Felix Hanke, Paula Havu,
            Ville Havu, Xinguo Ren, Karsten Reuter, and Matthias Scheffler,
            'Ab Initio Molecular Simulations with Numeric Atom-Centered Orbitals',
            Computer Physics Communications 180, 2175-2196 (2009)

          In addition, many other developments in FHI-aims are likely important for
          your particular application. A partial list of references is given at the end of
          this file. Thank you for giving credit to the authors of these developments.

          For any questions about FHI-aims, please visit our slack channel at

            https://fhi-aims.slack.com

          and our main development and support site at

            https://aims-git.rz-berlin.mpg.de .

          The latter site, in particular, has a wiki to collect information, as well
          as an issue tracker to log discussions, suggest improvements, and report issues
          or bugs. https://aims-git.rz-berlin.mpg.de is also the main development site
          of the project and all new and updated code versions can be obtained there.
          Please send an email to aims-coordinators@fhi-berlin.mpg.de and we will add
          you to these sites. They are for you and everyone is welcome there.

------------------------------------------------------------



  Date     :  20211223, Time     :  004327.931
  Time zero on CPU 1             :   0.165898000000000E+00  s.
  Internal wall clock time zero  :           409452207.931  s.

  FHI-aims created a unique identifier for this run for later identification
  aims_uuid : A313A481-D8C6-4D84-A9E2-4618D0A2147C

  Build configuration of the current instance of FHI-aims
  -------------------------------------------------------
  FHI-aims version      : 211206
  Commit number         : 89e815567
  CMake host system     : Linux-5.3.18-24.86-default
  CMake version         : 3.22.0
  Fortran compiler      : /mpcdf/soft/SLE_15/packages/x86_64/intel_parallel_studio/2020.2/compilers_and_libraries_2020.2.254/linux/mpi/intel64/bin/mpiifort (Intel) version 19.1.2.20200623
  Fortran compiler flags: -O3 -ip -fp-model precise
  C compiler            : /mpcdf/soft/SLE_15/packages/x86_64/intel/19.1.2/bin/icc (Intel) version 19.1.2.20200623
  C compiler flags      : -O3 -ip -fp-model precise
  C++ compiler          : /mpcdf/soft/SLE_15/packages/x86_64/intel/19.1.2/bin/icpc (Intel) version 19.1.2.20200623
  C++ compiler flags    : -O3 -ip -fp-model precise
  Using MPI
  Using ScaLAPACK
  Using LibXC
  Using i-PI
  Using RLSY
  Linking against: /mpcdf/soft/SLE_15/packages/x86_64/intel_oneapi/2021.2/mkl/latest/lib/intel64/libmkl_intel_lp64.so
                   /mpcdf/soft/SLE_15/packages/x86_64/intel_oneapi/2021.2/mkl/latest/lib/intel64/libmkl_sequential.so
                   /mpcdf/soft/SLE_15/packages/x86_64/intel_oneapi/2021.2/mkl/latest/lib/intel64/libmkl_core.so
                   /mpcdf/soft/SLE_15/packages/x86_64/intel_oneapi/2021.2/mkl/latest/lib/intel64/libmkl_blacs_intelmpi_lp64.so
                   /mpcdf/soft/SLE_15/packages/x86_64/intel_oneapi/2021.2/mkl/latest/lib/intel64/libmkl_scalapack_lp64.so

  Using      288 parallel tasks.
  Task        0 on host ravg1057 reporting.
  Task        1 on host ravg1057 reporting.
  Task        2 on host ravg1057 reporting.
  Task        3 on host ravg1057 reporting.
  Task        4 on host ravg1057 reporting.
  Task        5 on host ravg1057 reporting.
  Task        6 on host ravg1057 reporting.
  Task        7 on host ravg1057 reporting.
  Task        8 on host ravg1057 reporting.
  Task        9 on host ravg1057 reporting.
  Task       10 on host ravg1057 reporting.
  Task       11 on host ravg1057 reporting.
  Task       12 on host ravg1057 reporting.
  Task       13 on host ravg1057 reporting.
  Task       14 on host ravg1057 reporting.
  Task       15 on host ravg1057 reporting.
  Task       16 on host ravg1057 reporting.
  Task       17 on host ravg1057 reporting.
  Task       18 on host ravg1057 reporting.
  Task       19 on host ravg1057 reporting.
  Task       20 on host ravg1057 reporting.
  Task       21 on host ravg1057 reporting.
  Task       22 on host ravg1057 reporting.
  Task       23 on host ravg1057 reporting.
  Task       24 on host ravg1057 reporting.
  Task       25 on host ravg1057 reporting.
  Task       26 on host ravg1057 reporting.
  Task       27 on host ravg1057 reporting.
  Task       28 on host ravg1057 reporting.
  Task       29 on host ravg1057 reporting.
  Task       30 on host ravg1057 reporting.
  Task       31 on host ravg1057 reporting.
  Task       32 on host ravg1057 reporting.
  Task       33 on host ravg1057 reporting.
  Task       34 on host ravg1057 reporting.
  Task       35 on host ravg1057 reporting.
  Task       36 on host ravg1057 reporting.
  Task       37 on host ravg1057 reporting.
  Task       38 on host ravg1057 reporting.
  Task       39 on host ravg1057 reporting.
  Task       40 on host ravg1057 reporting.
  Task       41 on host ravg1057 reporting.
  Task       42 on host ravg1057 reporting.
  Task       43 on host ravg1057 reporting.
  Task       44 on host ravg1057 reporting.
  Task       45 on host ravg1057 reporting.
  Task       46 on host ravg1057 reporting.
  Task       47 on host ravg1057 reporting.
  Task       48 on host ravg1057 reporting.
  Task       49 on host ravg1057 reporting.
  Task       50 on host ravg1057 reporting.
  Task       51 on host ravg1057 reporting.
  Task       52 on host ravg1057 reporting.
  Task       53 on host ravg1057 reporting.
  Task       54 on host ravg1057 reporting.
  Task       55 on host ravg1057 reporting.
  Task       56 on host ravg1057 reporting.
  Task       57 on host ravg1057 reporting.
  Task       58 on host ravg1057 reporting.
  Task       59 on host ravg1057 reporting.
  Task       60 on host ravg1057 reporting.
  Task       61 on host ravg1057 reporting.
  Task       62 on host ravg1057 reporting.
  Task       63 on host ravg1057 reporting.
  Task       64 on host ravg1057 reporting.
  Task       65 on host ravg1057 reporting.
  Task       66 on host ravg1057 reporting.
  Task       67 on host ravg1057 reporting.
  Task       68 on host ravg1057 reporting.
  Task       69 on host ravg1057 reporting.
  Task       70 on host ravg1057 reporting.
  Task       71 on host ravg1057 reporting.
  Task       72 on host ravg1064 reporting.
  Task       73 on host ravg1064 reporting.
  Task       74 on host ravg1064 reporting.
  Task       75 on host ravg1064 reporting.
  Task       76 on host ravg1064 reporting.
  Task       77 on host ravg1064 reporting.
  Task       78 on host ravg1064 reporting.
  Task       79 on host ravg1064 reporting.
  Task       80 on host ravg1064 reporting.
  Task       81 on host ravg1064 reporting.
  Task       82 on host ravg1064 reporting.
  Task       83 on host ravg1064 reporting.
  Task       84 on host ravg1064 reporting.
  Task       85 on host ravg1064 reporting.
  Task       86 on host ravg1064 reporting.
  Task       87 on host ravg1064 reporting.
  Task       88 on host ravg1064 reporting.
  Task       89 on host ravg1064 reporting.
  Task       90 on host ravg1064 reporting.
  Task       91 on host ravg1064 reporting.
  Task       92 on host ravg1064 reporting.
  Task       93 on host ravg1064 reporting.
  Task       94 on host ravg1064 reporting.
  Task       95 on host ravg1064 reporting.
  Task       96 on host ravg1064 reporting.
  Task       97 on host ravg1064 reporting.
  Task       98 on host ravg1064 reporting.
  Task       99 on host ravg1064 reporting.
  Task      100 on host ravg1064 reporting.
  Task      101 on host ravg1064 reporting.
  Task      102 on host ravg1064 reporting.
  Task      103 on host ravg1064 reporting.
  Task      104 on host ravg1064 reporting.
  Task      105 on host ravg1064 reporting.
  Task      106 on host ravg1064 reporting.
  Task      107 on host ravg1064 reporting.
  Task      108 on host ravg1064 reporting.
  Task      109 on host ravg1064 reporting.
  Task      110 on host ravg1064 reporting.
  Task      111 on host ravg1064 reporting.
  Task      112 on host ravg1064 reporting.
  Task      113 on host ravg1064 reporting.
  Task      114 on host ravg1064 reporting.
  Task      115 on host ravg1064 reporting.
  Task      116 on host ravg1064 reporting.
  Task      117 on host ravg1064 reporting.
  Task      118 on host ravg1064 reporting.
  Task      119 on host ravg1064 reporting.
  Task      120 on host ravg1064 reporting.
  Task      121 on host ravg1064 reporting.
  Task      122 on host ravg1064 reporting.
  Task      123 on host ravg1064 reporting.
  Task      124 on host ravg1064 reporting.
  Task      125 on host ravg1064 reporting.
  Task      126 on host ravg1064 reporting.
  Task      127 on host ravg1064 reporting.
  Task      128 on host ravg1064 reporting.
  Task      129 on host ravg1064 reporting.
  Task      130 on host ravg1064 reporting.
  Task      131 on host ravg1064 reporting.
  Task      132 on host ravg1064 reporting.
  Task      133 on host ravg1064 reporting.
  Task      134 on host ravg1064 reporting.
  Task      135 on host ravg1064 reporting.
  Task      136 on host ravg1064 reporting.
  Task      137 on host ravg1064 reporting.
  Task      138 on host ravg1064 reporting.
  Task      139 on host ravg1064 reporting.
  Task      140 on host ravg1064 reporting.
  Task      141 on host ravg1064 reporting.
  Task      142 on host ravg1064 reporting.
  Task      143 on host ravg1064 reporting.
  Task      144 on host ravg1068 reporting.
  Task      145 on host ravg1068 reporting.
  Task      146 on host ravg1068 reporting.
  Task      147 on host ravg1068 reporting.
  Task      148 on host ravg1068 reporting.
  Task      149 on host ravg1068 reporting.
  Task      150 on host ravg1068 reporting.
  Task      151 on host ravg1068 reporting.
  Task      152 on host ravg1068 reporting.
  Task      153 on host ravg1068 reporting.
  Task      154 on host ravg1068 reporting.
  Task      155 on host ravg1068 reporting.
  Task      156 on host ravg1068 reporting.
  Task      157 on host ravg1068 reporting.
  Task      158 on host ravg1068 reporting.
  Task      159 on host ravg1068 reporting.
  Task      160 on host ravg1068 reporting.
  Task      161 on host ravg1068 reporting.
  Task      162 on host ravg1068 reporting.
  Task      163 on host ravg1068 reporting.
  Task      164 on host ravg1068 reporting.
  Task      165 on host ravg1068 reporting.
  Task      166 on host ravg1068 reporting.
  Task      167 on host ravg1068 reporting.
  Task      168 on host ravg1068 reporting.
  Task      169 on host ravg1068 reporting.
  Task      170 on host ravg1068 reporting.
  Task      171 on host ravg1068 reporting.
  Task      172 on host ravg1068 reporting.
  Task      173 on host ravg1068 reporting.
  Task      174 on host ravg1068 reporting.
  Task      175 on host ravg1068 reporting.
  Task      176 on host ravg1068 reporting.
  Task      177 on host ravg1068 reporting.
  Task      178 on host ravg1068 reporting.
  Task      179 on host ravg1068 reporting.
  Task      180 on host ravg1068 reporting.
  Task      181 on host ravg1068 reporting.
  Task      182 on host ravg1068 reporting.
  Task      183 on host ravg1068 reporting.
  Task      184 on host ravg1068 reporting.
  Task      185 on host ravg1068 reporting.
  Task      186 on host ravg1068 reporting.
  Task      187 on host ravg1068 reporting.
  Task      188 on host ravg1068 reporting.
  Task      189 on host ravg1068 reporting.
  Task      190 on host ravg1068 reporting.
  Task      191 on host ravg1068 reporting.
  Task      192 on host ravg1068 reporting.
  Task      193 on host ravg1068 reporting.
  Task      194 on host ravg1068 reporting.
  Task      195 on host ravg1068 reporting.
  Task      196 on host ravg1068 reporting.
  Task      197 on host ravg1068 reporting.
  Task      198 on host ravg1068 reporting.
  Task      199 on host ravg1068 reporting.
  Task      200 on host ravg1068 reporting.
  Task      201 on host ravg1068 reporting.
  Task      202 on host ravg1068 reporting.
  Task      203 on host ravg1068 reporting.
  Task      204 on host ravg1068 reporting.
  Task      205 on host ravg1068 reporting.
  Task      206 on host ravg1068 reporting.
  Task      207 on host ravg1068 reporting.
  Task      208 on host ravg1068 reporting.
  Task      209 on host ravg1068 reporting.
  Task      210 on host ravg1068 reporting.
  Task      211 on host ravg1068 reporting.
  Task      212 on host ravg1068 reporting.
  Task      213 on host ravg1068 reporting.
  Task      214 on host ravg1068 reporting.
  Task      215 on host ravg1068 reporting.
  Task      216 on host ravg1069 reporting.
  Task      217 on host ravg1069 reporting.
  Task      218 on host ravg1069 reporting.
  Task      219 on host ravg1069 reporting.
  Task      220 on host ravg1069 reporting.
  Task      221 on host ravg1069 reporting.
  Task      222 on host ravg1069 reporting.
  Task      223 on host ravg1069 reporting.
  Task      224 on host ravg1069 reporting.
  Task      225 on host ravg1069 reporting.
  Task      226 on host ravg1069 reporting.
  Task      227 on host ravg1069 reporting.
  Task      228 on host ravg1069 reporting.
  Task      229 on host ravg1069 reporting.
  Task      230 on host ravg1069 reporting.
  Task      231 on host ravg1069 reporting.
  Task      232 on host ravg1069 reporting.
  Task      233 on host ravg1069 reporting.
  Task      234 on host ravg1069 reporting.
  Task      235 on host ravg1069 reporting.
  Task      236 on host ravg1069 reporting.
  Task      237 on host ravg1069 reporting.
  Task      238 on host ravg1069 reporting.
  Task      239 on host ravg1069 reporting.
  Task      240 on host ravg1069 reporting.
  Task      241 on host ravg1069 reporting.
  Task      242 on host ravg1069 reporting.
  Task      243 on host ravg1069 reporting.
  Task      244 on host ravg1069 reporting.
  Task      245 on host ravg1069 reporting.
  Task      246 on host ravg1069 reporting.
  Task      247 on host ravg1069 reporting.
  Task      248 on host ravg1069 reporting.
  Task      249 on host ravg1069 reporting.
  Task      250 on host ravg1069 reporting.
  Task      251 on host ravg1069 reporting.
  Task      252 on host ravg1069 reporting.
  Task      253 on host ravg1069 reporting.
  Task      254 on host ravg1069 reporting.
  Task      255 on host ravg1069 reporting.
  Task      256 on host ravg1069 reporting.
  Task      257 on host ravg1069 reporting.
  Task      258 on host ravg1069 reporting.
  Task      259 on host ravg1069 reporting.
  Task      260 on host ravg1069 reporting.
  Task      261 on host ravg1069 reporting.
  Task      262 on host ravg1069 reporting.
  Task      263 on host ravg1069 reporting.
  Task      264 on host ravg1069 reporting.
  Task      265 on host ravg1069 reporting.
  Task      266 on host ravg1069 reporting.
  Task      267 on host ravg1069 reporting.
  Task      268 on host ravg1069 reporting.
  Task      269 on host ravg1069 reporting.
  Task      270 on host ravg1069 reporting.
  Task      271 on host ravg1069 reporting.
  Task      272 on host ravg1069 reporting.
  Task      273 on host ravg1069 reporting.
  Task      274 on host ravg1069 reporting.
  Task      275 on host ravg1069 reporting.
  Task      276 on host ravg1069 reporting.
  Task      277 on host ravg1069 reporting.
  Task      278 on host ravg1069 reporting.
  Task      279 on host ravg1069 reporting.
  Task      280 on host ravg1069 reporting.
  Task      281 on host ravg1069 reporting.
  Task      282 on host ravg1069 reporting.
  Task      283 on host ravg1069 reporting.
  Task      284 on host ravg1069 reporting.
  Task      285 on host ravg1069 reporting.
  Task      286 on host ravg1069 reporting.
  Task      287 on host ravg1069 reporting.

  Performing system and environment tests:
  | Environment variable OMP_NUM_THREADS correctly set to 1.
  | Checking for ScaLAPACK...
  | Testing pdtran()...
  | All pdtran() tests passed.

  Obtaining array dimensions for all initial allocations:
  
  -----------------------------------------------------------------------
  Parsing control.in (first pass over file, find array dimensions only).
  The contents of control.in will be repeated verbatim below
  unless switched off by setting 'verbatim_writeout .false.' .
  in the first line of control.in .
  -----------------------------------------------------------------------
  
  ##### Physical settings  ################
  xc                 pbe
  spin               none
  charge      0.0
  relativistic       atomic_zora scalar
  #elsi_restart read
  # SCF settings
  
  #relax_unit_cell full
  #output dos_tetrahedron -10 0 1001 0.1
  #output atom_proj_dos_tetrahedron -10 0 1001 0.1
  #output species_proj_dos_tetrahedron -10 0 1001 0.1
  #
  ######################################################relax_geometry trm 1E-3
  
  #vdw_correction_hirshfeld
  occupation_type gaussian       0.01
  # k-grid settings  (to be adjusted)
  k_grid   4 4 1
  #empty_states 8
  use_dipole_correction
  #include_spin_orbit non_self_consistent
  
  mixer   pulay
  n_max_pulay        12 # high for metal
  charge_mix_param   0.1 #low for metal
  many_body_dispersion_nl    beta=0.81
  #many_body_dispersion_nl    beta=0.81 do_rpa=.true. rpa_rescale_eigs=.true. parallel_mode=k_points
  ################################################################################
  #
  #  FHI-aims code project
  # Volker Blum, Fritz Haber Institute Berlin, 2009
  #
  #  Suggested "tight" defaults for S atom (to be pasted into control.in file)
  #
  #  Revised Jan 04, 2011, following tests (SiC) done by Lydia Nemec:
  #     d and g functions of tier 2 now enabled by default.
  #
  ################################################################################
    species        S
  #     global species definitions
      nucleus             16
      mass                32.065
  #
      l_hartree           6
  #
      cut_pot             5.0          2.0  1.0
      basis_dep_cutoff    1e-4
  #
      radial_base         44 7.0
      radial_multiplier   2
      angular_grids       specified
        division   0.4665  110
        division   0.5810  194
        division   0.7139  302
        division   0.8274  434
  #      division   0.9105  590
  #      division   1.0975  770
  #      division   1.2028  974
  #      outer_grid  974
        outer_grid  434
  ################################################################################
  #
  #  Definition of "minimal" basis
  #
  ################################################################################
  #     valence basis states
      valence      3  s   2.
      valence      3  p   4.
  #     ion occupancy
      ion_occ      3  s   1.
      ion_occ      3  p   3.
  ################################################################################
  #
  #  Suggested additional basis functions. For production calculations,
  #  uncomment them one after another (the most important basis functions are
  #  listed first).
  #
  #  Constructed for dimers: 1.6 A, 1.9 A, 2.5 A, 3.25 A, 4.0 A
  #
  ################################################################################
  #  "First tier" - improvements: -652.81 meV to -45.53 meV
       ionic 3 d auto
       hydro 2 p 1.8
       hydro 4 f 7
       ionic 3 s auto
  #  "Second tier" - improvements: -30.20 meV to -1.74 meV
       hydro 4 d 6.2
       hydro 5 g 10.8
  #     hydro 4 p 4.9
  #     hydro 5 f 10
  #     hydro 1 s 0.8
  #  "Third tier" - improvements: -1.04 meV to -0.20 meV
  #     hydro 3 d 3.9
  #     hydro 3 d 2.7
  #     hydro 5 g 12
  #     hydro 4 p 10.4
  #     hydro 5 f 12.4
  #     hydro 2 s 1.9
  #  "Fourth tier" - improvements: -0.35 meV to -0.06 meV
  #     hydro 4 d 10.4
  #     hydro 4 p 7.2
  #     hydro 4 d 10
  #     hydro 5 g 19.2
  #     hydro 4 s 12
  
  ################################################################################
  #
  # For methods that use the localized form of the "resolution of identity" for
  # the two-electron Coulomb operator (RI_method LVL), particularly Hartree-Fock and
  # hybrid density functional calculations, the highest accuracy can be obtained by
  # uncommenting the line beginning with "for_aux"  below, thus adding an extra g radial
  # function to the construction of the product basis set for the expansion.
  # See Ref. New J. Phys. 17, 093020 (2015) for more information, particularly Figs. 1 and 6.
  #
  ################################################################################
  #
  # for_aux hydro 5 g 6.0
  ################################################################################
  #
  #  FHI-aims code project
  # Volker Blum, Fritz Haber Institute Berlin, 2009
  #
  #  Suggested "tight" defaults for Mo atom (to be pasted into control.in file)
  #
  ################################################################################
    species        Mo
  #     global species definitions
      nucleus             42
      mass                95.94
  #
      l_hartree           6
  #
      cut_pot             5.0  2.0  1.0
      basis_dep_cutoff    1e-4
  #
      radial_base         59 7.0
      radial_multiplier   2
      angular_grids specified
        division   0.3117   50
        division   0.6750  110
        division   1.0351  194
        division   1.2073  302
        division   1.6402  434
  #      division   1.9185  590
  #      division   2.0237  770
  #      division   2.0980  974
  #      division   2.7972 1202
  #      outer_grid  974
        outer_grid  434
  ################################################################################
  #
  #  Definition of "minimal" basis
  #
  ################################################################################
  #     valence basis states
      valence      5  s   1.
      valence      4  p   6.
      valence      4  d   5.
  #     ion occupancy
      ion_occ     5  s   0.
      ion_occ     4  p   6.
      ion_occ     4  d   4.
  ################################################################################
  #
  #  Suggested additional basis functions. For production calculations,
  #  uncomment them one after another (the most important basis functions are
  #  listed first).
  #
  #  Constructed for dimers: 1.675 A, 1.9 A, 2.375 A, 3.00 A, 4.00 A
  #
  ################################################################################
  #  "First tier"  - max. impr. -711.23  meV, min. impr. -21.07 meV
       hydro 4 f 8.4
       hydro 3 d 2.8
       ionic 5 p auto
       hydro 5 g 12
       ionic 5 s auto
  #  "Second tier" - max. impr. -39.38  meV, min. impr. -2.68 meV
  #     hydro 4 f 12.4
  #     hydro 3 d 3.3
  #     hydro 6 h 17.2
  #     hydro 4 f 7.6
  #     hydro 3 p 3.0
  #     hydro 1 s 0.65
  #  "Third tier"  - max. impr. -5.50 meV, min. impr. -0.47 meV
  #     hydro 4 f 29.2
  #     hydro 5 g 11.2
  #     hydro 3 d 6.8
  #     hydro 6 h 14.8
  #     hydro 2 p 2.3
  #     hydro 4 s 3.8
  #  "Fourth tier"  - max. impr. -0.58 meV, min. impr. -0.19 meV
  #     hydro 5 f 6.8
  #     hydro 5 d 14.8
  #     hydro 6 s 7.8
  #     hydro 5 g 20.8
  #     hydro 5 d 10.4
  #     hydro 5 p 9.8
  #  Further functions - -0.17 meV and below
  #     hydro 5 d 3.2
  compute_forces .true.
  final_forces_cleaned .true.
  
  -----------------------------------------------------------------------
  Completed first pass over input file control.in .
  -----------------------------------------------------------------------
  
  
  -----------------------------------------------------------------------
  Parsing geometry.in (first pass over file, find array dimensions only).
  The contents of geometry.in will be repeated verbatim below
  unless switched off by setting 'verbatim_writeout .false.' .
  in the first line of geometry.in .
  -----------------------------------------------------------------------
  
  #
  # temporary structure-file for finite-difference calculation of forces
  # displacement  -0.0025 of \# atom    30 direction     2
  #
  lattice_vector   15.80271867    0.00000000    0.00000000
  lattice_vector   -7.87096434   13.65967927    0.00000000
  lattice_vector    0.00000000    0.00000000  100.00000000
  atom    3.96916084    7.74133487   49.65034200  Mo
  atom    5.55074200    8.65138232   51.21812300   S
  atom    5.55074113    8.65138245   48.08256100   S
  atom    2.39496109   10.47326786   49.65034400  Mo
  atom    3.97655086   11.38331407   51.21811900   S
  atom    3.97654999   11.38331339   48.08256600   S
  atom    0.82076343   13.20521641   49.65034300  Mo
  atom   10.27332699    0.45556970   51.21811700   S
  atom   10.27332612    0.45556929   48.08256700   S
  atom    7.11753297    2.27745961   49.65034100  Mo
  atom    8.69912487    3.18750241   51.21812400   S
  atom    8.69912511    3.18750310   48.08256000   S
  atom    5.54335141    5.00943207   49.65034100  Mo
  atom    7.12495319    5.91944127   51.21811800   S
  atom    7.12495382    5.91944073   48.08256500   S
  atom    7.12968659    7.74134880   49.65034100  Mo
  atom    8.71129455    8.65136565   51.21812700   S
  atom    8.71129526    8.65136661   48.08255800   S
  atom    5.55551483   10.47328944   49.65034200  Mo
  atom    7.13710773   11.38332309   51.21811700   S
  atom    7.13710844   11.38332213   48.08256700   S
  atom    3.98132874   13.20521956   49.65034200  Mo
  atom   13.43386623    0.45557066   51.21813900   S
  atom   13.43386567    0.45557025   48.08254400   S
  atom   10.27808718    2.27747955   49.65034200  Mo
  atom   11.85968742    3.18750624   51.21811400   S
  atom   11.85968687    3.18750637   48.08256900   S
  atom    8.70390944    5.00939601   49.65034200  Mo
  atom   10.28547624    5.91945165   51.21813500   S
  atom   10.28547569    5.91945179   48.08254900   S
  atom   10.29025559    7.74134061   49.64784200  Mo
  atom   -3.93088724    8.65137644   51.21813200   S
  atom   -3.93088850    8.65137726   48.08255100   S
  atom    8.71605026   10.47325310   49.65034300  Mo
  atom   -5.50507969   11.38332036   51.21811400   S
  atom   -5.50508033   11.38331954   48.08257000   S
  atom    7.14183663   13.20523403   49.65034100  Mo
  atom    0.79169570    0.45556219   51.21812200   S
  atom    0.79169578    0.45556260   48.08256100   S
  atom   13.43864097    2.27745360   49.65034100  Mo
  atom   -0.78250346    3.18751143   51.21812200   S
  atom   -0.78250283    3.18751225   48.08256100   S
  atom   11.86441475    5.00942101   49.65034200  Mo
  atom   -2.35668845    5.91943717   51.21811000   S
  atom   -2.35668782    5.91943581   48.08257300   S
  atom   -2.35194097    7.74135481   49.65034000  Mo
  atom   -0.77033569    8.65137166   51.21811900   S
  atom   -0.77033482    8.65137153   48.08256400   S
  atom   -3.92611951   10.47326717   49.65034200  Mo
  atom   -2.34453429   11.38332404   51.21811300   S
  atom   -2.34453532   11.38332473   48.08257100   S
  atom   -5.50030514   13.20522502   49.65034100  Mo
  atom    3.95223659    0.45556465   51.21813500   S
  atom    3.95223730    0.45556424   48.08254900   S
  atom    0.79644275    2.27746330   49.65034200  Mo
  atom    2.37804935    3.18750692   51.21811100   S
  atom    2.37804911    3.18750842   48.08257400   S
  atom   -0.77771967    5.00941322   49.65034300  Mo
  atom    0.80385175    5.91944797   51.21813700   S
  atom    0.80385254    5.91944687   48.08254800   S
  atom    0.80862367    7.74133774   49.65034100  Mo
  atom    2.39020615    8.65137603   51.21812900   S
  atom    2.39020663    8.65137713   48.08255600   S
  atom   -0.76558342   10.47327359   49.65034000  Mo
  atom    0.81601164   11.38331749   51.21812000   S
  atom    0.81601330   11.38331817   48.08256400   S
  atom   -2.33976776   13.20524237   49.65034300  Mo
  atom    7.11278673    0.45556833   51.21813500   S
  atom    7.11278705    0.45556724   48.08254900   S
  atom    3.95701088    2.27745497   49.65034100  Mo
  atom    5.53858978    3.18751402   51.21811500   S
  atom    5.53858962    3.18751402   48.08256800   S
  atom    2.38279374    5.00941841   49.65034400  Mo
  atom    3.96439056    5.91943704   51.21812700   S
  atom    3.96438898    5.91943704   48.08255800   S
  
  -----------------------------------------------------------------------
  Completed first pass over input file geometry.in .
  -----------------------------------------------------------------------
  

  Basic array size parameters:
  | Number of species                 :        2
  | Number of atoms                   :       75
  | Number of lattice vectors         :        3
  | Max. basis fn. angular momentum   :        4
  | Max. atomic/ionic basis occupied n:        5
  | Max. number of basis fn. types    :        3
  | Max. radial fns per species/type  :       10
  | Max. logarithmic grid size        :     1436
  | Max. radial integration grid size :      119
  | Max. angular integration grid size:      434
  | Max. angular grid division number :        8
  | Radial grid for Hartree potential :     1436
  | Number of spin channels           :        1

------------------------------------------------------------
          Reading file control.in.
------------------------------------------------------------
  XC: Using PBE gradient-corrected functionals.
  Spin treatment: No spin polarisation.
  Charge =   0.000000E+00: Neutral system requested explicitly.
  Scalar relativistic treatment of kinetic energy: on-site free-atom approximation to ZORA.
  Occupation type: Gaussian broadening, width =   0.100000E-01 eV.
  Found k-point grid:         4         4         1
  Using dipole correction.
  Using pulay charge density mixing.
  Pulay mixing - number of memorized iterations:   12
  Charge density mixing - mixing parameter:     0.1000
  Using libMBD for calculating MBD and TS energies
 
  Reading configuration options for species S                   .
  | Found nuclear charge :  16.0000
  | Found atomic mass :    32.0650000000000      amu
  | Found l_max for Hartree potential  :   6
  | Found cutoff potl. onset [A], width [A], scale factor :    5.00000    2.00000    1.00000
  | Threshold for basis-dependent cutoff potential is   0.100000E-03
  | Found data for basic radial integration grid :    44 points, outermost radius =    7.000 A
  | Found multiplier for basic radial grid :   2
  | Found angular grid specification: user-specified.
  | Specified grid contains     5 separate shells.
  | Check grid settings after all constraints further below.
  | Found free-atom valence shell :  3 s   2.000
  | Found free-atom valence shell :  3 p   4.000
  | Found free-ion valence shell :  3 s   1.000
  | Found free-ion valence shell :  3 p   3.000
  | Found ionic basis function :  3 d , default cutoff radius.
  | Found hydrogenic basis function :  2 p   1.800
  | Found hydrogenic basis function :  4 f   7.000
  | Found ionic basis function :  3 s , default cutoff radius.
  | Found hydrogenic basis function :  4 d   6.200
  | Found hydrogenic basis function :  5 g  10.800
  Species S                   : Missing cutoff potential type.
  Defaulting to exp(1/x)/(1-x)^2 type cutoff potential.
  Species S : No 'logarithmic' tag. Using default grid for free atom:
  | Default logarithmic grid data [bohr] : 0.1000E-03 0.1000E+03 0.1012E+01
  | Will include ionic basis functions of  2.0-fold positive S                    ion.
  Species S : On-site basis accuracy parameter (for Gram-Schmidt orthonormalisation) not specified.
  Using default value basis_acc =  0.1000000E-03.
  Species S                   : Using default innermost maximum threshold i_radial=  2 for radial functions.
  Species S                   : Default cutoff onset for free atom density etc. : 0.50000000E+01 AA.
  Species S                   : Basic radial grid will be enhanced according to radial_multiplier =   2, to contain    89 grid points.
 
  Reading configuration options for species Mo                  .
  | Found nuclear charge :  42.0000
  | Found atomic mass :    95.9400000000000      amu
  | Found l_max for Hartree potential  :   6
  | Found cutoff potl. onset [A], width [A], scale factor :    5.00000    2.00000    1.00000
  | Threshold for basis-dependent cutoff potential is   0.100000E-03
  | Found data for basic radial integration grid :    59 points, outermost radius =    7.000 A
  | Found multiplier for basic radial grid :   2
  | Found angular grid specification: user-specified.
  | Specified grid contains     6 separate shells.
  | Check grid settings after all constraints further below.
  | Found free-atom valence shell :  5 s   1.000
  | Found free-atom valence shell :  4 p   6.000
  | Found free-atom valence shell :  4 d   5.000
  | Found free-ion valence shell :  5 s   0.000
  | Found free-ion valence shell :  4 p   6.000
  | Found free-ion valence shell :  4 d   4.000
  | Found hydrogenic basis function :  4 f   8.400
  | Found hydrogenic basis function :  3 d   2.800
  | Found ionic basis function :  5 p , default cutoff radius.
  | Found hydrogenic basis function :  5 g  12.000
  | Found ionic basis function :  5 s , default cutoff radius.
  Species Mo                  : Missing cutoff potential type.
  Defaulting to exp(1/x)/(1-x)^2 type cutoff potential.
  Species Mo: No 'logarithmic' tag. Using default grid for free atom:
  | Default logarithmic grid data [bohr] : 0.1000E-03 0.1000E+03 0.1012E+01
  | Will include ionic basis functions of  2.0-fold positive Mo                   ion.
  Species Mo: On-site basis accuracy parameter (for Gram-Schmidt orthonormalisation) not specified.
  Using default value basis_acc =  0.1000000E-03.
  Species Mo                  : Using default innermost maximum threshold i_radial=  2 for radial functions.
  Species Mo                  : Default cutoff onset for free atom density etc. : 0.50000000E+01 AA.
  Species Mo                  : Basic radial grid will be enhanced according to radial_multiplier =   2, to contain   119 grid points.
  Forces will be computed.
  Cleaning forces before final output.
 
  Finished reading input file 'control.in'.
 
------------------------------------------------------------


------------------------------------------------------------
          Reading geometry description geometry.in.
------------------------------------------------------------
  | The smallest distance between any two atoms is         2.40196667 AA.
  | The first atom of this pair is atom number                     31 .
  | The second atom of this pair is atom number                    30 .
  | Wigner-Seitz cell of the first atom image           0     1     0 .
  | (The Wigner-Seitz cell of the second atom is 0 0 0  by definition.)

  Symmetry information by spglib:
  | Precision set to  0.1E-04
  | Number of Operations  : 1
  | Space group           : 1
  | International         : P1
  | Schoenflies           : C1^1
  Input structure read successfully.
  The structure contains       75 atoms,  and a total of       1850.000 electrons.

  Input geometry:
  | Unit cell:
  |       15.80271867        0.00000000        0.00000000
  |       -7.87096434       13.65967927        0.00000000
  |        0.00000000        0.00000000      100.00000000
  | Atomic structure:
  |       Atom                x [A]            y [A]            z [A]
  |    1: Species Mo            3.96916084        7.74133487       49.65034200
  |    2: Species S             5.55074200        8.65138232       51.21812300
  |    3: Species S             5.55074113        8.65138245       48.08256100
  |    4: Species Mo            2.39496109       10.47326786       49.65034400
  |    5: Species S             3.97655086       11.38331407       51.21811900
  |    6: Species S             3.97654999       11.38331339       48.08256600
  |    7: Species Mo            0.82076343       13.20521641       49.65034300
  |    8: Species S            10.27332699        0.45556970       51.21811700
  |    9: Species S            10.27332612        0.45556929       48.08256700
  |   10: Species Mo            7.11753297        2.27745961       49.65034100
  |   11: Species S             8.69912487        3.18750241       51.21812400
  |   12: Species S             8.69912511        3.18750310       48.08256000
  |   13: Species Mo            5.54335141        5.00943207       49.65034100
  |   14: Species S             7.12495319        5.91944127       51.21811800
  |   15: Species S             7.12495382        5.91944073       48.08256500
  |   16: Species Mo            7.12968659        7.74134880       49.65034100
  |   17: Species S             8.71129455        8.65136565       51.21812700
  |   18: Species S             8.71129526        8.65136661       48.08255800
  |   19: Species Mo            5.55551483       10.47328944       49.65034200
  |   20: Species S             7.13710773       11.38332309       51.21811700
  |   21: Species S             7.13710844       11.38332213       48.08256700
  |   22: Species Mo            3.98132874       13.20521956       49.65034200
  |   23: Species S            13.43386623        0.45557066       51.21813900
  |   24: Species S            13.43386567        0.45557025       48.08254400
  |   25: Species Mo           10.27808718        2.27747955       49.65034200
  |   26: Species S            11.85968742        3.18750624       51.21811400
  |   27: Species S            11.85968687        3.18750637       48.08256900
  |   28: Species Mo            8.70390944        5.00939601       49.65034200
  |   29: Species S            10.28547624        5.91945165       51.21813500
  |   30: Species S            10.28547569        5.91945179       48.08254900
  |   31: Species Mo           10.29025559        7.74134061       49.64784200
  |   32: Species S            -3.93088724        8.65137644       51.21813200
  |   33: Species S            -3.93088850        8.65137726       48.08255100
  |   34: Species Mo            8.71605026       10.47325310       49.65034300
  |   35: Species S            -5.50507969       11.38332036       51.21811400
  |   36: Species S            -5.50508033       11.38331954       48.08257000
  |   37: Species Mo            7.14183663       13.20523403       49.65034100
  |   38: Species S             0.79169570        0.45556219       51.21812200
  |   39: Species S             0.79169578        0.45556260       48.08256100
  |   40: Species Mo           13.43864097        2.27745360       49.65034100
  |   41: Species S            -0.78250346        3.18751143       51.21812200
  |   42: Species S            -0.78250283        3.18751225       48.08256100
  |   43: Species Mo           11.86441475        5.00942101       49.65034200
  |   44: Species S            -2.35668845        5.91943717       51.21811000
  |   45: Species S            -2.35668782        5.91943581       48.08257300
  |   46: Species Mo           -2.35194097        7.74135481       49.65034000
  |   47: Species S            -0.77033569        8.65137166       51.21811900
  |   48: Species S            -0.77033482        8.65137153       48.08256400
  |   49: Species Mo           -3.92611951       10.47326717       49.65034200
  |   50: Species S            -2.34453429       11.38332404       51.21811300
  |   51: Species S            -2.34453532       11.38332473       48.08257100
  |   52: Species Mo           -5.50030514       13.20522502       49.65034100
  |   53: Species S             3.95223659        0.45556465       51.21813500
  |   54: Species S             3.95223730        0.45556424       48.08254900
  |   55: Species Mo            0.79644275        2.27746330       49.65034200
  |   56: Species S             2.37804935        3.18750692       51.21811100
  |   57: Species S             2.37804911        3.18750842       48.08257400
  |   58: Species Mo           -0.77771967        5.00941322       49.65034300
  |   59: Species S             0.80385175        5.91944797       51.21813700
  |   60: Species S             0.80385254        5.91944687       48.08254800
  |   61: Species Mo            0.80862367        7.74133774       49.65034100
  |   62: Species S             2.39020615        8.65137603       51.21812900
  |   63: Species S             2.39020663        8.65137713       48.08255600
  |   64: Species Mo           -0.76558342       10.47327359       49.65034000
  |   65: Species S             0.81601164       11.38331749       51.21812000
  |   66: Species S             0.81601330       11.38331817       48.08256400
  |   67: Species Mo           -2.33976776       13.20524237       49.65034300
  |   68: Species S             7.11278673        0.45556833       51.21813500
  |   69: Species S             7.11278705        0.45556724       48.08254900
  |   70: Species Mo            3.95701088        2.27745497       49.65034100
  |   71: Species S             5.53858978        3.18751402       51.21811500
  |   72: Species S             5.53858962        3.18751402       48.08256800
  |   73: Species Mo            2.38279374        5.00941841       49.65034400
  |   74: Species S             3.96439056        5.91943704       51.21812700
  |   75: Species S             3.96438898        5.91943704       48.08255800

  Lattice parameters for 3D lattice (in Angstroms) :    15.802719   15.765117  100.000000
  Angle(s) between unit vectors (in degrees)       :    90.000000   90.000000  119.951356


  Quantities derived from the lattice vectors:
  | Reciprocal lattice vector 1:  0.397602  0.229105  0.000000
  | Reciprocal lattice vector 2: -0.000000  0.459980  0.000000
  | Reciprocal lattice vector 3:  0.000000  0.000000  0.062832
  | Unit cell volume                               :   0.215860E+05  A^3

  Fractional coordinates:
                         L1                L2                L3
       atom_frac         0.53344389        0.56672889        0.49650342  Mo
       atom_frac         0.66671005        0.63335179        0.51218123  S
       atom_frac         0.66671000        0.63335180        0.48082561  S
       atom_frac         0.53344335        0.76672868        0.49650344  Mo
       atom_frac         0.66671001        0.83335149        0.51218119  S
       atom_frac         0.66670993        0.83335144        0.48082566  S
       atom_frac         0.53344351        0.96672961        0.49650343  Mo
       atom_frac         0.66671027        0.03335142        0.51218117  S
       atom_frac         0.66671020        0.03335139        0.48082567  S
       atom_frac         0.53344290        0.16672863        0.49650341  Mo
       atom_frac         0.66670957        0.23335119        0.51218124  S
       atom_frac         0.66670961        0.23335124        0.48082560  S
       atom_frac         0.53344495        0.36673131        0.49650341  Mo
       atom_frac         0.66671102        0.43335141        0.51218118  S
       atom_frac         0.66671104        0.43335137        0.48082565  S
       atom_frac         0.73344326        0.56672991        0.49650341  Mo
       atom_frac         0.86671000        0.63335057        0.51218127  S
       atom_frac         0.86671008        0.63335064        0.48082558  S
       atom_frac         0.73344477        0.76673026        0.49650342  Mo
       atom_frac         0.86671117        0.83335215        0.51218117  S
       atom_frac         0.86671118        0.83335208        0.48082567  S
       atom_frac         0.73344499        0.96672984        0.49650342  Mo
       atom_frac         0.86671002        0.03335149        0.51218139  S
       atom_frac         0.86670997        0.03335146        0.48082544  S
       atom_frac         0.73344429        0.16673009        0.49650342  Mo
       atom_frac         0.86671090        0.23335147        0.51218114  S
       atom_frac         0.86671087        0.23335148        0.48082569  S
       atom_frac         0.73344454        0.36672867        0.49650342  Mo
       atom_frac         0.86671009        0.43335217        0.51218135  S
       atom_frac         0.86671006        0.43335218        0.48082549  S
       atom_frac         0.93344456        0.56672931        0.49647842  Mo
       atom_frac         0.06670996        0.63335136        0.51218132  S
       atom_frac         0.06670991        0.63335142        0.48082551  S
       atom_frac         0.93344292        0.76672760        0.49650343  Mo
       atom_frac         0.06671028        0.83335195        0.51218114  S
       atom_frac         0.06671021        0.83335189        0.48082570  S
       atom_frac         0.93344325        0.96673090        0.49650341  Mo
       atom_frac         0.06670999        0.03335087        0.51218122  S
       atom_frac         0.06671001        0.03335090        0.48082561  S
       atom_frac         0.93344398        0.16672819        0.49650341  Mo
       atom_frac         0.06671008        0.23335185        0.51218122  S
       atom_frac         0.06671015        0.23335191        0.48082561  S
       atom_frac         0.93344302        0.36673050        0.49650342  Mo
       atom_frac         0.06671021        0.43335111        0.51218110  S
       atom_frac         0.06671020        0.43335101        0.48082573  S
       atom_frac         0.13344371        0.56673035        0.49650340  Mo
       atom_frac         0.26671028        0.63335101        0.51218119  S
       atom_frac         0.26671033        0.63335100        0.48082564  S
       atom_frac         0.13344376        0.76672863        0.49650342  Mo
       atom_frac         0.26671052        0.83335222        0.51218113  S
       atom_frac         0.26671048        0.83335227        0.48082571  S
       atom_frac         0.13344502        0.96673024        0.49650341  Mo
       atom_frac         0.26670990        0.03335105        0.51218135  S
       atom_frac         0.26670993        0.03335102        0.48082549  S
       atom_frac         0.13344286        0.16672890        0.49650342  Mo
       atom_frac         0.26671049        0.23335152        0.51218111  S
       atom_frac         0.26671053        0.23335163        0.48082574  S
       atom_frac         0.13344530        0.36672993        0.49650343  Mo
       atom_frac         0.26671038        0.43335190        0.51218137  S
       atom_frac         0.26671039        0.43335182        0.48082548  S
       atom_frac         0.33344441        0.56672910        0.49650341  Mo
       atom_frac         0.46671032        0.63335133        0.51218129  S
       atom_frac         0.46671039        0.63335141        0.48082556  S
       atom_frac         0.33344351        0.76672910        0.49650340  Mo
       atom_frac         0.46671042        0.83335174        0.51218120  S
       atom_frac         0.46671055        0.83335179        0.48082564  S
       atom_frac         0.33344525        0.96673151        0.49650343  Mo
       atom_frac         0.46671044        0.03335132        0.51218135  S
       atom_frac         0.46671042        0.03335124        0.48082549  S
       atom_frac         0.33344410        0.16672829        0.49650341  Mo
       atom_frac         0.46671054        0.23335204        0.51218115  S
       atom_frac         0.46671053        0.23335204        0.48082568  S
       atom_frac         0.33344357        0.36673031        0.49650344  Mo
       atom_frac         0.46670967        0.43335110        0.51218127  S
       atom_frac         0.46670957        0.43335110        0.48082558  S

 
  Finished reading input file 'control.in'.
 

------------------------------------------------------------
          Reading geometry description geometry.in.
------------------------------------------------------------
 
  Consistency checks for stacksize environment parameter are next.
 
  | Maximum stacksize for task 0: unlimited
  | Maximum stacksize for task 1: unlimited
  | Maximum stacksize for task 2: unlimited
  | Maximum stacksize for task 3: unlimited
  | Maximum stacksize for task 4: unlimited
  | Maximum stacksize for task 5: unlimited
  | Maximum stacksize for task 6: unlimited
  | Maximum stacksize for task 7: unlimited
  | Maximum stacksize for task 8: unlimited
  | Maximum stacksize for task 9: unlimited
  | Maximum stacksize for task 10: unlimited
  | Maximum stacksize for task 11: unlimited
  | Maximum stacksize for task 12: unlimited
  | Maximum stacksize for task 13: unlimited
  | Maximum stacksize for task 14: unlimited
  | Maximum stacksize for task 15: unlimited
  | Maximum stacksize for task 16: unlimited
  | Maximum stacksize for task 17: unlimited
  | Maximum stacksize for task 18: unlimited
  | Maximum stacksize for task 19: unlimited
  | Maximum stacksize for task 20: unlimited
  | Maximum stacksize for task 21: unlimited
  | Maximum stacksize for task 22: unlimited
  | Maximum stacksize for task 23: unlimited
  | Maximum stacksize for task 24: unlimited
  | Maximum stacksize for task 25: unlimited
  | Maximum stacksize for task 26: unlimited
  | Maximum stacksize for task 27: unlimited
  | Maximum stacksize for task 28: unlimited
  | Maximum stacksize for task 29: unlimited
  | Maximum stacksize for task 30: unlimited
  | Maximum stacksize for task 31: unlimited
  | Maximum stacksize for task 32: unlimited
  | Maximum stacksize for task 33: unlimited
  | Maximum stacksize for task 34: unlimited
  | Maximum stacksize for task 35: unlimited
  | Maximum stacksize for task 36: unlimited
  | Maximum stacksize for task 37: unlimited
  | Maximum stacksize for task 38: unlimited
  | Maximum stacksize for task 39: unlimited
  | Maximum stacksize for task 40: unlimited
  | Maximum stacksize for task 41: unlimited
  | Maximum stacksize for task 42: unlimited
  | Maximum stacksize for task 43: unlimited
  | Maximum stacksize for task 44: unlimited
  | Maximum stacksize for task 45: unlimited
  | Maximum stacksize for task 46: unlimited
  | Maximum stacksize for task 47: unlimited
  | Maximum stacksize for task 48: unlimited
  | Maximum stacksize for task 49: unlimited
  | Maximum stacksize for task 50: unlimited
  | Maximum stacksize for task 51: unlimited
  | Maximum stacksize for task 52: unlimited
  | Maximum stacksize for task 53: unlimited
  | Maximum stacksize for task 54: unlimited
  | Maximum stacksize for task 55: unlimited
  | Maximum stacksize for task 56: unlimited
  | Maximum stacksize for task 57: unlimited
  | Maximum stacksize for task 58: unlimited
  | Maximum stacksize for task 59: unlimited
  | Maximum stacksize for task 60: unlimited
  | Maximum stacksize for task 61: unlimited
  | Maximum stacksize for task 62: unlimited
  | Maximum stacksize for task 63: unlimited
  | Maximum stacksize for task 64: unlimited
  | Maximum stacksize for task 65: unlimited
  | Maximum stacksize for task 66: unlimited
  | Maximum stacksize for task 67: unlimited
  | Maximum stacksize for task 68: unlimited
  | Maximum stacksize for task 69: unlimited
  | Maximum stacksize for task 70: unlimited
  | Maximum stacksize for task 71: unlimited
  | Maximum stacksize for task 72: unlimited
  | Maximum stacksize for task 73: unlimited
  | Maximum stacksize for task 74: unlimited
  | Maximum stacksize for task 75: unlimited
  | Maximum stacksize for task 76: unlimited
  | Maximum stacksize for task 77: unlimited
  | Maximum stacksize for task 78: unlimited
  | Maximum stacksize for task 79: unlimited
  | Maximum stacksize for task 80: unlimited
  | Maximum stacksize for task 81: unlimited
  | Maximum stacksize for task 82: unlimited
  | Maximum stacksize for task 83: unlimited
  | Maximum stacksize for task 84: unlimited
  | Maximum stacksize for task 85: unlimited
  | Maximum stacksize for task 86: unlimited
  | Maximum stacksize for task 87: unlimited
  | Maximum stacksize for task 88: unlimited
  | Maximum stacksize for task 89: unlimited
  | Maximum stacksize for task 90: unlimited
  | Maximum stacksize for task 91: unlimited
  | Maximum stacksize for task 92: unlimited
  | Maximum stacksize for task 93: unlimited
  | Maximum stacksize for task 94: unlimited
  | Maximum stacksize for task 95: unlimited
  | Maximum stacksize for task 96: unlimited
  | Maximum stacksize for task 97: unlimited
  | Maximum stacksize for task 98: unlimited
  | Maximum stacksize for task 99: unlimited
  | Maximum stacksize for task 100: unlimited
  | Maximum stacksize for task 101: unlimited
  | Maximum stacksize for task 102: unlimited
  | Maximum stacksize for task 103: unlimited
  | Maximum stacksize for task 104: unlimited
  | Maximum stacksize for task 105: unlimited
  | Maximum stacksize for task 106: unlimited
  | Maximum stacksize for task 107: unlimited
  | Maximum stacksize for task 108: unlimited
  | Maximum stacksize for task 109: unlimited
  | Maximum stacksize for task 110: unlimited
  | Maximum stacksize for task 111: unlimited
  | Maximum stacksize for task 112: unlimited
  | Maximum stacksize for task 113: unlimited
  | Maximum stacksize for task 114: unlimited
  | Maximum stacksize for task 115: unlimited
  | Maximum stacksize for task 116: unlimited
  | Maximum stacksize for task 117: unlimited
  | Maximum stacksize for task 118: unlimited
  | Maximum stacksize for task 119: unlimited
  | Maximum stacksize for task 120: unlimited
  | Maximum stacksize for task 121: unlimited
  | Maximum stacksize for task 122: unlimited
  | Maximum stacksize for task 123: unlimited
  | Maximum stacksize for task 124: unlimited
  | Maximum stacksize for task 125: unlimited
  | Maximum stacksize for task 126: unlimited
  | Maximum stacksize for task 127: unlimited
  | Maximum stacksize for task 128: unlimited
  | Maximum stacksize for task 129: unlimited
  | Maximum stacksize for task 130: unlimited
  | Maximum stacksize for task 131: unlimited
  | Maximum stacksize for task 132: unlimited
  | Maximum stacksize for task 133: unlimited
  | Maximum stacksize for task 134: unlimited
  | Maximum stacksize for task 135: unlimited
  | Maximum stacksize for task 136: unlimited
  | Maximum stacksize for task 137: unlimited
  | Maximum stacksize for task 138: unlimited
  | Maximum stacksize for task 139: unlimited
  | Maximum stacksize for task 140: unlimited
  | Maximum stacksize for task 141: unlimited
  | Maximum stacksize for task 142: unlimited
  | Maximum stacksize for task 143: unlimited
  | Maximum stacksize for task 144: unlimited
  | Maximum stacksize for task 145: unlimited
  | Maximum stacksize for task 146: unlimited
  | Maximum stacksize for task 147: unlimited
  | Maximum stacksize for task 148: unlimited
  | Maximum stacksize for task 149: unlimited
  | Maximum stacksize for task 150: unlimited
  | Maximum stacksize for task 151: unlimited
  | Maximum stacksize for task 152: unlimited
  | Maximum stacksize for task 153: unlimited
  | Maximum stacksize for task 154: unlimited
  | Maximum stacksize for task 155: unlimited
  | Maximum stacksize for task 156: unlimited
  | Maximum stacksize for task 157: unlimited
  | Maximum stacksize for task 158: unlimited
  | Maximum stacksize for task 159: unlimited
  | Maximum stacksize for task 160: unlimited
  | Maximum stacksize for task 161: unlimited
  | Maximum stacksize for task 162: unlimited
  | Maximum stacksize for task 163: unlimited
  | Maximum stacksize for task 164: unlimited
  | Maximum stacksize for task 165: unlimited
  | Maximum stacksize for task 166: unlimited
  | Maximum stacksize for task 167: unlimited
  | Maximum stacksize for task 168: unlimited
  | Maximum stacksize for task 169: unlimited
  | Maximum stacksize for task 170: unlimited
  | Maximum stacksize for task 171: unlimited
  | Maximum stacksize for task 172: unlimited
  | Maximum stacksize for task 173: unlimited
  | Maximum stacksize for task 174: unlimited
  | Maximum stacksize for task 175: unlimited
  | Maximum stacksize for task 176: unlimited
  | Maximum stacksize for task 177: unlimited
  | Maximum stacksize for task 178: unlimited
  | Maximum stacksize for task 179: unlimited
  | Maximum stacksize for task 180: unlimited
  | Maximum stacksize for task 181: unlimited
  | Maximum stacksize for task 182: unlimited
  | Maximum stacksize for task 183: unlimited
  | Maximum stacksize for task 184: unlimited
  | Maximum stacksize for task 185: unlimited
  | Maximum stacksize for task 186: unlimited
  | Maximum stacksize for task 187: unlimited
  | Maximum stacksize for task 188: unlimited
  | Maximum stacksize for task 189: unlimited
  | Maximum stacksize for task 190: unlimited
  | Maximum stacksize for task 191: unlimited
  | Maximum stacksize for task 192: unlimited
  | Maximum stacksize for task 193: unlimited
  | Maximum stacksize for task 194: unlimited
  | Maximum stacksize for task 195: unlimited
  | Maximum stacksize for task 196: unlimited
  | Maximum stacksize for task 197: unlimited
  | Maximum stacksize for task 198: unlimited
  | Maximum stacksize for task 199: unlimited
  | Maximum stacksize for task 200: unlimited
  | Maximum stacksize for task 201: unlimited
  | Maximum stacksize for task 202: unlimited
  | Maximum stacksize for task 203: unlimited
  | Maximum stacksize for task 204: unlimited
  | Maximum stacksize for task 205: unlimited
  | Maximum stacksize for task 206: unlimited
  | Maximum stacksize for task 207: unlimited
  | Maximum stacksize for task 208: unlimited
  | Maximum stacksize for task 209: unlimited
  | Maximum stacksize for task 210: unlimited
  | Maximum stacksize for task 211: unlimited
  | Maximum stacksize for task 212: unlimited
  | Maximum stacksize for task 213: unlimited
  | Maximum stacksize for task 214: unlimited
  | Maximum stacksize for task 215: unlimited
  | Maximum stacksize for task 216: unlimited
  | Maximum stacksize for task 217: unlimited
  | Maximum stacksize for task 218: unlimited
  | Maximum stacksize for task 219: unlimited
  | Maximum stacksize for task 220: unlimited
  | Maximum stacksize for task 221: unlimited
  | Maximum stacksize for task 222: unlimited
  | Maximum stacksize for task 223: unlimited
  | Maximum stacksize for task 224: unlimited
  | Maximum stacksize for task 225: unlimited
  | Maximum stacksize for task 226: unlimited
  | Maximum stacksize for task 227: unlimited
  | Maximum stacksize for task 228: unlimited
  | Maximum stacksize for task 229: unlimited
  | Maximum stacksize for task 230: unlimited
  | Maximum stacksize for task 231: unlimited
  | Maximum stacksize for task 232: unlimited
  | Maximum stacksize for task 233: unlimited
  | Maximum stacksize for task 234: unlimited
  | Maximum stacksize for task 235: unlimited
  | Maximum stacksize for task 236: unlimited
  | Maximum stacksize for task 237: unlimited
  | Maximum stacksize for task 238: unlimited
  | Maximum stacksize for task 239: unlimited
  | Maximum stacksize for task 240: unlimited
  | Maximum stacksize for task 241: unlimited
  | Maximum stacksize for task 242: unlimited
  | Maximum stacksize for task 243: unlimited
  | Maximum stacksize for task 244: unlimited
  | Maximum stacksize for task 245: unlimited
  | Maximum stacksize for task 246: unlimited
  | Maximum stacksize for task 247: unlimited
  | Maximum stacksize for task 248: unlimited
  | Maximum stacksize for task 249: unlimited
  | Maximum stacksize for task 250: unlimited
  | Maximum stacksize for task 251: unlimited
  | Maximum stacksize for task 252: unlimited
  | Maximum stacksize for task 253: unlimited
  | Maximum stacksize for task 254: unlimited
  | Maximum stacksize for task 255: unlimited
  | Maximum stacksize for task 256: unlimited
  | Maximum stacksize for task 257: unlimited
  | Maximum stacksize for task 258: unlimited
  | Maximum stacksize for task 259: unlimited
  | Maximum stacksize for task 260: unlimited
  | Maximum stacksize for task 261: unlimited
  | Maximum stacksize for task 262: unlimited
  | Maximum stacksize for task 263: unlimited
  | Maximum stacksize for task 264: unlimited
  | Maximum stacksize for task 265: unlimited
  | Maximum stacksize for task 266: unlimited
  | Maximum stacksize for task 267: unlimited
  | Maximum stacksize for task 268: unlimited
  | Maximum stacksize for task 269: unlimited
  | Maximum stacksize for task 270: unlimited
  | Maximum stacksize for task 271: unlimited
  | Maximum stacksize for task 272: unlimited
  | Maximum stacksize for task 273: unlimited
  | Maximum stacksize for task 274: unlimited
  | Maximum stacksize for task 275: unlimited
  | Maximum stacksize for task 276: unlimited
  | Maximum stacksize for task 277: unlimited
  | Maximum stacksize for task 278: unlimited
  | Maximum stacksize for task 279: unlimited
  | Maximum stacksize for task 280: unlimited
  | Maximum stacksize for task 281: unlimited
  | Maximum stacksize for task 282: unlimited
  | Maximum stacksize for task 283: unlimited
  | Maximum stacksize for task 284: unlimited
  | Maximum stacksize for task 285: unlimited
  | Maximum stacksize for task 286: unlimited
  | Maximum stacksize for task 287: unlimited
  | Current stacksize for task 0: unlimited
  | Current stacksize for task 1: unlimited
  | Current stacksize for task 2: unlimited
  | Current stacksize for task 3: unlimited
  | Current stacksize for task 4: unlimited
  | Current stacksize for task 5: unlimited
  | Current stacksize for task 6: unlimited
  | Current stacksize for task 7: unlimited
  | Current stacksize for task 8: unlimited
  | Current stacksize for task 9: unlimited
  | Current stacksize for task 10: unlimited
  | Current stacksize for task 11: unlimited
  | Current stacksize for task 12: unlimited
  | Current stacksize for task 13: unlimited
  | Current stacksize for task 14: unlimited
  | Current stacksize for task 15: unlimited
  | Current stacksize for task 16: unlimited
  | Current stacksize for task 17: unlimited
  | Current stacksize for task 18: unlimited
  | Current stacksize for task 19: unlimited
  | Current stacksize for task 20: unlimited
  | Current stacksize for task 21: unlimited
  | Current stacksize for task 22: unlimited
  | Current stacksize for task 23: unlimited
  | Current stacksize for task 24: unlimited
  | Current stacksize for task 25: unlimited
  | Current stacksize for task 26: unlimited
  | Current stacksize for task 27: unlimited
  | Current stacksize for task 28: unlimited
  | Current stacksize for task 29: unlimited
  | Current stacksize for task 30: unlimited
  | Current stacksize for task 31: unlimited
  | Current stacksize for task 32: unlimited
  | Current stacksize for task 33: unlimited
  | Current stacksize for task 34: unlimited
  | Current stacksize for task 35: unlimited
  | Current stacksize for task 36: unlimited
  | Current stacksize for task 37: unlimited
  | Current stacksize for task 38: unlimited
  | Current stacksize for task 39: unlimited
  | Current stacksize for task 40: unlimited
  | Current stacksize for task 41: unlimited
  | Current stacksize for task 42: unlimited
  | Current stacksize for task 43: unlimited
  | Current stacksize for task 44: unlimited
  | Current stacksize for task 45: unlimited
  | Current stacksize for task 46: unlimited
  | Current stacksize for task 47: unlimited
  | Current stacksize for task 48: unlimited
  | Current stacksize for task 49: unlimited
  | Current stacksize for task 50: unlimited
  | Current stacksize for task 51: unlimited
  | Current stacksize for task 52: unlimited
  | Current stacksize for task 53: unlimited
  | Current stacksize for task 54: unlimited
  | Current stacksize for task 55: unlimited
  | Current stacksize for task 56: unlimited
  | Current stacksize for task 57: unlimited
  | Current stacksize for task 58: unlimited
  | Current stacksize for task 59: unlimited
  | Current stacksize for task 60: unlimited
  | Current stacksize for task 61: unlimited
  | Current stacksize for task 62: unlimited
  | Current stacksize for task 63: unlimited
  | Current stacksize for task 64: unlimited
  | Current stacksize for task 65: unlimited
  | Current stacksize for task 66: unlimited
  | Current stacksize for task 67: unlimited
  | Current stacksize for task 68: unlimited
  | Current stacksize for task 69: unlimited
  | Current stacksize for task 70: unlimited
  | Current stacksize for task 71: unlimited
  | Current stacksize for task 72: unlimited
  | Current stacksize for task 73: unlimited
  | Current stacksize for task 74: unlimited
  | Current stacksize for task 75: unlimited
  | Current stacksize for task 76: unlimited
  | Current stacksize for task 77: unlimited
  | Current stacksize for task 78: unlimited
  | Current stacksize for task 79: unlimited
  | Current stacksize for task 80: unlimited
  | Current stacksize for task 81: unlimited
  | Current stacksize for task 82: unlimited
  | Current stacksize for task 83: unlimited
  | Current stacksize for task 84: unlimited
  | Current stacksize for task 85: unlimited
  | Current stacksize for task 86: unlimited
  | Current stacksize for task 87: unlimited
  | Current stacksize for task 88: unlimited
  | Current stacksize for task 89: unlimited
  | Current stacksize for task 90: unlimited
  | Current stacksize for task 91: unlimited
  | Current stacksize for task 92: unlimited
  | Current stacksize for task 93: unlimited
  | Current stacksize for task 94: unlimited
  | Current stacksize for task 95: unlimited
  | Current stacksize for task 96: unlimited
  | Current stacksize for task 97: unlimited
  | Current stacksize for task 98: unlimited
  | Current stacksize for task 99: unlimited
  | Current stacksize for task 100: unlimited
  | Current stacksize for task 101: unlimited
  | Current stacksize for task 102: unlimited
  | Current stacksize for task 103: unlimited
  | Current stacksize for task 104: unlimited
  | Current stacksize for task 105: unlimited
  | Current stacksize for task 106: unlimited
  | Current stacksize for task 107: unlimited
  | Current stacksize for task 108: unlimited
  | Current stacksize for task 109: unlimited
  | Current stacksize for task 110: unlimited
  | Current stacksize for task 111: unlimited
  | Current stacksize for task 112: unlimited
  | Current stacksize for task 113: unlimited
  | Current stacksize for task 114: unlimited
  | Current stacksize for task 115: unlimited
  | Current stacksize for task 116: unlimited
  | Current stacksize for task 117: unlimited
  | Current stacksize for task 118: unlimited
  | Current stacksize for task 119: unlimited
  | Current stacksize for task 120: unlimited
  | Current stacksize for task 121: unlimited
  | Current stacksize for task 122: unlimited
  | Current stacksize for task 123: unlimited
  | Current stacksize for task 124: unlimited
  | Current stacksize for task 125: unlimited
  | Current stacksize for task 126: unlimited
  | Current stacksize for task 127: unlimited
  | Current stacksize for task 128: unlimited
  | Current stacksize for task 129: unlimited
  | Current stacksize for task 130: unlimited
  | Current stacksize for task 131: unlimited
  | Current stacksize for task 132: unlimited
  | Current stacksize for task 133: unlimited
  | Current stacksize for task 134: unlimited
  | Current stacksize for task 135: unlimited
  | Current stacksize for task 136: unlimited
  | Current stacksize for task 137: unlimited
  | Current stacksize for task 138: unlimited
  | Current stacksize for task 139: unlimited
  | Current stacksize for task 140: unlimited
  | Current stacksize for task 141: unlimited
  | Current stacksize for task 142: unlimited
  | Current stacksize for task 143: unlimited
  | Current stacksize for task 144: unlimited
  | Current stacksize for task 145: unlimited
  | Current stacksize for task 146: unlimited
  | Current stacksize for task 147: unlimited
  | Current stacksize for task 148: unlimited
  | Current stacksize for task 149: unlimited
  | Current stacksize for task 150: unlimited
  | Current stacksize for task 151: unlimited
  | Current stacksize for task 152: unlimited
  | Current stacksize for task 153: unlimited
  | Current stacksize for task 154: unlimited
  | Current stacksize for task 155: unlimited
  | Current stacksize for task 156: unlimited
  | Current stacksize for task 157: unlimited
  | Current stacksize for task 158: unlimited
  | Current stacksize for task 159: unlimited
  | Current stacksize for task 160: unlimited
  | Current stacksize for task 161: unlimited
  | Current stacksize for task 162: unlimited
  | Current stacksize for task 163: unlimited
  | Current stacksize for task 164: unlimited
  | Current stacksize for task 165: unlimited
  | Current stacksize for task 166: unlimited
  | Current stacksize for task 167: unlimited
  | Current stacksize for task 168: unlimited
  | Current stacksize for task 169: unlimited
  | Current stacksize for task 170: unlimited
  | Current stacksize for task 171: unlimited
  | Current stacksize for task 172: unlimited
  | Current stacksize for task 173: unlimited
  | Current stacksize for task 174: unlimited
  | Current stacksize for task 175: unlimited
  | Current stacksize for task 176: unlimited
  | Current stacksize for task 177: unlimited
  | Current stacksize for task 178: unlimited
  | Current stacksize for task 179: unlimited
  | Current stacksize for task 180: unlimited
  | Current stacksize for task 181: unlimited
  | Current stacksize for task 182: unlimited
  | Current stacksize for task 183: unlimited
  | Current stacksize for task 184: unlimited
  | Current stacksize for task 185: unlimited
  | Current stacksize for task 186: unlimited
  | Current stacksize for task 187: unlimited
  | Current stacksize for task 188: unlimited
  | Current stacksize for task 189: unlimited
  | Current stacksize for task 190: unlimited
  | Current stacksize for task 191: unlimited
  | Current stacksize for task 192: unlimited
  | Current stacksize for task 193: unlimited
  | Current stacksize for task 194: unlimited
  | Current stacksize for task 195: unlimited
  | Current stacksize for task 196: unlimited
  | Current stacksize for task 197: unlimited
  | Current stacksize for task 198: unlimited
  | Current stacksize for task 199: unlimited
  | Current stacksize for task 200: unlimited
  | Current stacksize for task 201: unlimited
  | Current stacksize for task 202: unlimited
  | Current stacksize for task 203: unlimited
  | Current stacksize for task 204: unlimited
  | Current stacksize for task 205: unlimited
  | Current stacksize for task 206: unlimited
  | Current stacksize for task 207: unlimited
  | Current stacksize for task 208: unlimited
  | Current stacksize for task 209: unlimited
  | Current stacksize for task 210: unlimited
  | Current stacksize for task 211: unlimited
  | Current stacksize for task 212: unlimited
  | Current stacksize for task 213: unlimited
  | Current stacksize for task 214: unlimited
  | Current stacksize for task 215: unlimited
  | Current stacksize for task 216: unlimited
  | Current stacksize for task 217: unlimited
  | Current stacksize for task 218: unlimited
  | Current stacksize for task 219: unlimited
  | Current stacksize for task 220: unlimited
  | Current stacksize for task 221: unlimited
  | Current stacksize for task 222: unlimited
  | Current stacksize for task 223: unlimited
  | Current stacksize for task 224: unlimited
  | Current stacksize for task 225: unlimited
  | Current stacksize for task 226: unlimited
  | Current stacksize for task 227: unlimited
  | Current stacksize for task 228: unlimited
  | Current stacksize for task 229: unlimited
  | Current stacksize for task 230: unlimited
  | Current stacksize for task 231: unlimited
  | Current stacksize for task 232: unlimited
  | Current stacksize for task 233: unlimited
  | Current stacksize for task 234: unlimited
  | Current stacksize for task 235: unlimited
  | Current stacksize for task 236: unlimited
  | Current stacksize for task 237: unlimited
  | Current stacksize for task 238: unlimited
  | Current stacksize for task 239: unlimited
  | Current stacksize for task 240: unlimited
  | Current stacksize for task 241: unlimited
  | Current stacksize for task 242: unlimited
  | Current stacksize for task 243: unlimited
  | Current stacksize for task 244: unlimited
  | Current stacksize for task 245: unlimited
  | Current stacksize for task 246: unlimited
  | Current stacksize for task 247: unlimited
  | Current stacksize for task 248: unlimited
  | Current stacksize for task 249: unlimited
  | Current stacksize for task 250: unlimited
  | Current stacksize for task 251: unlimited
  | Current stacksize for task 252: unlimited
  | Current stacksize for task 253: unlimited
  | Current stacksize for task 254: unlimited
  | Current stacksize for task 255: unlimited
  | Current stacksize for task 256: unlimited
  | Current stacksize for task 257: unlimited
  | Current stacksize for task 258: unlimited
  | Current stacksize for task 259: unlimited
  | Current stacksize for task 260: unlimited
  | Current stacksize for task 261: unlimited
  | Current stacksize for task 262: unlimited
  | Current stacksize for task 263: unlimited
  | Current stacksize for task 264: unlimited
  | Current stacksize for task 265: unlimited
  | Current stacksize for task 266: unlimited
  | Current stacksize for task 267: unlimited
  | Current stacksize for task 268: unlimited
  | Current stacksize for task 269: unlimited
  | Current stacksize for task 270: unlimited
  | Current stacksize for task 271: unlimited
  | Current stacksize for task 272: unlimited
  | Current stacksize for task 273: unlimited
  | Current stacksize for task 274: unlimited
  | Current stacksize for task 275: unlimited
  | Current stacksize for task 276: unlimited
  | Current stacksize for task 277: unlimited
  | Current stacksize for task 278: unlimited
  | Current stacksize for task 279: unlimited
  | Current stacksize for task 280: unlimited
  | Current stacksize for task 281: unlimited
  | Current stacksize for task 282: unlimited
  | Current stacksize for task 283: unlimited
  | Current stacksize for task 284: unlimited
  | Current stacksize for task 285: unlimited
  | Current stacksize for task 286: unlimited
  | Current stacksize for task 287: unlimited
 
  Consistency checks for the contents of control.in are next.
 
  MPI_IN_PLACE appears to work with this MPI implementation.
  | Keeping use_mpi_in_place .true. (see manual).
  Target number of points in a grid batch is not set. Defaulting to  100
  Method for grid partitioning is not set. Defaulting to parallel hash+maxmin partitioning.
  Batch size limit is not set. Defaulting to    200
  By default, will store active basis functions for each batch.
  If in need of memory, prune_basis_once .false. can be used to disable this option.
  communication_type for Hartree potential was not specified.
  Defaulting to calc_hartree .
  Pulay mixer: Number of initial linear mixing iterations not set.
  Defaulting to    0 iterations.
  Work space size for distributed Hartree potential not set.
  Defaulting to   0.200000E+03 MB.
  Algorithm-dependent basis array size parameters:
  | n_max_pulay                         :       12
  Maximum number of self-consistency iterations not provided.
  Presetting  1000 iterations.
  Presetting      1001 iterations before the initial mixing cycle
  is restarted anyway using the sc_init_iter criterion / keyword.
  Presetting a factor      1.000 between actual scf density residual
  and density convergence criterion sc_accuracy_rho below which sc_init_iter
  takes no effect.
 * No s.c.f. convergence criteria (sc_accuracy_*) were provided in control.in.
 * The run will proceed with a reasonable default guess, but please check whether.
 * the s.c.f. cycles seem to take too much or too little time.
  Geometry relaxation not requested: no relaxation will be performed.
  Forces evaluation will include force correction term due to incomplete self-consistency (default).
 * Notice: The s.c.f. convergence criterion sc_accuracy_rho was not provided.
 * We used to stop in this case, and ask the user to provide reasonable
 * scf convergence criteria. However, this led some users to employ criteria
 * that led to extremely long run times, e.g., for simple relaxation.
 * We now preset a default value for sc_accuracy_rho if it is not set.
 * You may still wish to check if this setting is too tight or too loose for your needs.
 * Based on n_atoms and forces and force-correction status, FHI-aims chose sc_accuracy_rho =  0.282843E-04 .
  Force calculation: scf convergence accuracy of forces not set.
  Defaulting to 'sc_accuracy_forces not_checked'.
  Handling of forces: Unphysical translation and rotation will be removed from forces.
  No accuracy limit for integral partition fn. given. Defaulting to  0.1000E-14.
  No threshold value for u(r) in integrations given. Defaulting to  0.1000E-05.
  No accuracy for occupation numbers given. Defaulting to  0.1000E-12.
  No threshold value for occupation numbers given. Defaulting to  0.0000E+00.
  No accuracy for fermi level given. Defaulting to  0.1000E-19.
  Maximum # of iterations to find E_F not set. Defaulting to  200.
  Preferred method for the eigenvalue solver ('KS_method') not specified in 'control.in'.
  Calling BLACS routine to test compilation state
  Since ScaLAPACK support is enabled, defaulting to ELPA (via ELSI).
  Will not use alltoall communication since running on < 1024 CPUs.
  Threshold for basis singularities not set.
  Default threshold for basis singularities:  0.1000E-04
  partition_type (choice of integration weights) for integrals was not specified.
  | Using a version of the partition function of Stratmann and coworkers ('stratmann_sparse').
  | At each grid point, the set of atoms used to build the partition table is smoothly restricted to
  | only those atoms whose free-atom density would be non-zero at that grid point.
  Partitioning for Hartree potential was not defined. Using partition_type for integrals.
  | Adjusted default value of keyword multip_moments_threshold to:       0.10000000E-11
  | This value may affect high angular momentum components of the Hartree potential in periodic systems.
  Angular momentum expansion for Kerker preconditioner not set explicitly.
  | Using default value of   0
  No explicit requirement for turning off preconditioner.
  | By default, it will be turned off when the charge convergence reaches
  | sc_accuracy_rho  =   0.282843E-04
  No special mixing parameter while Kerker preconditioner is on.
  Using default: charge_mix_param =     0.1000.
  No q(lm)/r^(l+1) cutoff set for long-range Hartree potential.
  | Using default value of  0.100000E-09 .
  | Verify using the multipole_threshold keyword.
  Defaulting to new monopole extrapolation.
  Density update method: automatic selection selected.
  Using density matrix based charge density update.
  Using density matrix based charge density update.
  Using packed matrix style: index .
  Defaulting to use time-reversal symmetry for k-point grid.
  Charge integration errors on the 3D integration grid will be compensated
  by explicit normalization and distribution of residual charges.
  Use the "compensate_multipole_errors" flag to change this behaviour.
 
  Consistency checks for the contents of geometry.in are next.
 

  Range separation radius for Ewald summation (hartree_convergence_parameter):      5.00000000 bohr.
  Number of empty states per atom not set in control.in - providing a guess from actual geometry.
  | Total number of empty states used during s.c.f. cycle:      288
  If you use a very high smearing, use empty_states (per atom!) in control.in to increase this value.

  Structure-dependent array size parameters: 
  | Maximum number of distinct radial functions  :       26
  | Maximum number of basis functions            :     3175
  | Number of Kohn-Sham states (occupied + empty):     1213
------------------------------------------------------------
[...]
   Pulay + GGA                   : -0.205487E-01 -0.187080E-01 -0.369058E-03
   Van der Waals                 :  0.930498E-04  0.192634E-03  0.334989E-06
   ----------------------------------------------------------------
   Total forces(  70)            : -0.235659E-03  0.500171E-03  0.670061E-05
  atom #   71
   Hellmann-Feynman              : -0.148648E-01 -0.115792E-01  0.247935E+02
   Ionic forces                  :  0.000000E+00  0.000000E+00  0.000000E+00
   Multipole                     : -0.386488E-03 -0.327682E-03  0.572796E-01
   Hartree pot. SCF incomplete   :  0.106776E-05  0.478929E-05 -0.150773E-03
   Pulay + GGA                   :  0.152660E-01  0.121637E-01 -0.247615E+02
   Van der Waals                 : -0.473049E-04 -0.945951E-04 -0.888428E-01
   ----------------------------------------------------------------
   Total forces(  71)            : -0.315375E-04  0.167016E-03  0.227174E-03
  atom #   72
   Hellmann-Feynman              : -0.149203E-01 -0.112682E-01 -0.247938E+02
   Ionic forces                  :  0.000000E+00  0.000000E+00  0.000000E+00
   Multipole                     : -0.385434E-03 -0.324969E-03 -0.572818E-01
   Hartree pot. SCF incomplete   : -0.105414E-04 -0.953945E-05  0.148543E-03
   Pulay + GGA                   :  0.153091E-01  0.117783E-01  0.247619E+02
   Van der Waals                 : -0.473921E-04 -0.942142E-04  0.888426E-01
   ----------------------------------------------------------------
   Total forces(  72)            : -0.545730E-04  0.814465E-04 -0.215957E-03
  atom #   73
   Hellmann-Feynman              :  0.246130E-01  0.172461E-01  0.174517E-03
   Ionic forces                  :  0.000000E+00  0.000000E+00  0.000000E+00
   Multipole                     : -0.104421E-02 -0.134357E-02 -0.129133E-05
   Hartree pot. SCF incomplete   : -0.324821E-05  0.322187E-05 -0.112696E-04
   Pulay + GGA                   : -0.233734E-01 -0.160788E-01 -0.199249E-03
   Van der Waals                 :  0.974616E-04  0.185137E-03 -0.290586E-06
   ----------------------------------------------------------------
   Total forces(  73)            :  0.289571E-03  0.120749E-04 -0.375830E-04
  atom #   74
   Hellmann-Feynman              : -0.149547E-01 -0.113482E-01  0.247933E+02
   Ionic forces                  :  0.000000E+00  0.000000E+00  0.000000E+00
   Multipole                     : -0.389542E-03 -0.328994E-03  0.572821E-01
   Hartree pot. SCF incomplete   :  0.405677E-05 -0.102993E-05 -0.152609E-03
   Pulay + GGA                   :  0.154288E-01  0.119330E-01 -0.247614E+02
   Van der Waals                 : -0.475418E-04 -0.934047E-04 -0.888429E-01
   ----------------------------------------------------------------
   Total forces(  74)            :  0.410021E-04  0.161342E-03  0.185103E-03
  atom #   75
   Hellmann-Feynman              : -0.147526E-01 -0.115569E-01 -0.247936E+02
   Ionic forces                  :  0.000000E+00  0.000000E+00  0.000000E+00
   Multipole                     : -0.387193E-03 -0.329574E-03 -0.572840E-01
   Hartree pot. SCF incomplete   : -0.140152E-04 -0.405583E-05  0.150617E-03
   Pulay + GGA                   :  0.151547E-01  0.121655E-01  0.247617E+02
   Van der Waals                 : -0.472513E-04 -0.937272E-04  0.888427E-01
   ----------------------------------------------------------------
   Total forces(  75)            : -0.463027E-04  0.181231E-03 -0.161883E-03

  Timings for VdW correction (Tkatchenko-Scheffler 2009 or later):
  | CPU time:        5.944 s, Wall clock time:        5.944 s.
  Removing unitary transformations (pure translations, rotations) from forces on atoms.
  Atomic forces before filtering:
  | Net force on center of mass :  -0.465734E-03  0.932648E-02 -0.258166E-03 eV/A
  Atomic forces after filtering:
  | Net force on center of mass :   0.315782E-17  0.248270E-17 -0.217781E-18 eV/A

  Energy and forces in a compact form:
  | Total energy uncorrected      :         -0.332493351089667E+07 eV
  | Total energy corrected        :         -0.332493351089667E+07 eV  <-- do not rely on this value for anything but (periodic) metals
  | Electronic free energy        :         -0.332493351089667E+07 eV
  Total atomic forces (unitary forces cleaned) [eV/Ang]:
  |    1         -0.123734110981147E-03          0.261721622435631E-03         -0.150061880562015E-03
  |    2          0.123670433896363E-03          0.405354655529992E-04         -0.878618585218391E-05
  |    3         -0.145123613225246E-03         -0.381504590786147E-05         -0.403530825199561E-03
  |    4          0.118536671589758E-03          0.294055331531387E-03         -0.390121726911996E-04
  |    5          0.288640538795283E-04         -0.226078395664286E-04          0.189903375751071E-03
  |    6          0.374307048618991E-04         -0.279178382850405E-04         -0.204121380698847E-03
  |    7          0.203329379099679E-03          0.451733803700829E-04         -0.269560155993721E-04
  |    8         -0.434860937503873E-05          0.270221713952541E-04          0.178030529459781E-03
  |    9         -0.100462391678221E-05          0.401454883209264E-04         -0.187787516415393E-03
  |   10          0.361663052866500E-03          0.290734081934396E-03         -0.140929669367543E-03
  |   11          0.116428227118313E-03          0.180640758137882E-04         -0.372526870872039E-04
  |   12         -0.560541913032543E-04         -0.199893654086387E-03         -0.371631771169703E-03
  |   13          0.502158261482352E-05         -0.530722421117727E-03         -0.652049081817542E-04
  |   14          0.341871340050545E-03          0.277031927892899E-03         -0.374014659154653E-03
  |   15         -0.501263418968862E-03         -0.204873157472148E-03         -0.775960291030129E-03
  |   16          0.488619836608131E-03         -0.928570527288532E-04          0.155095174613079E-02
  |   17          0.767490943897106E-02         -0.452928095481508E-02         -0.116068299755347E-01
  |   18         -0.794386115646448E-02          0.448535389320954E-02         -0.119436883591023E-01
  |   19         -0.126971694600867E-03         -0.184202441564951E-03         -0.705751113783962E-04
  |   20         -0.330288563008953E-04         -0.194915904122839E-03          0.828026586423869E-05
  |   21         -0.128884981586669E-03          0.629994862103554E-04         -0.399327391987378E-03
  |   22         -0.241391021729284E-03         -0.100558303973209E-04         -0.119916589374769E-04
  |   23         -0.424850709237967E-04         -0.123199119179779E-04          0.138764306503838E-03
  |   24         -0.312887363686382E-04         -0.570300301810288E-05         -0.131624627797623E-03
  |   25         -0.125865024177292E-04         -0.159940775769088E-03         -0.818731075626301E-04
  |   26         -0.191065812980954E-03          0.128562910992469E-03          0.232422935858949E-04
  |   27         -0.146032475603267E-04         -0.813277612574096E-04         -0.410038373479855E-03
  |   28         -0.286467365841216E-03          0.359226382342742E-03          0.152253399647666E-02
  |   29          0.497732183602091E-04          0.889508276796867E-02         -0.116356341379088E-01
  |   30          0.195314917642684E-04         -0.917612648774653E-02         -0.119323164965084E-01
  |   31         -0.249080196118210E-03          0.606240056701392E-04          0.685253268427481E-01
  |   32         -0.766090053761472E-02         -0.442207100317273E-02         -0.115076628691762E-01
  |   33          0.780817449997730E-02          0.447722189043335E-02         -0.118864639914204E-01
  |   34          0.125467948461565E-03          0.668585781616512E-03          0.147694544992007E-02
  |   35          0.199237723030334E-04         -0.660708625548504E-03         -0.373506508453201E-03
  |   36          0.153922273257836E-04          0.329055318580954E-03         -0.769240029484365E-03
  |   37          0.589182925217202E-03         -0.371264539814201E-03         -0.145824784396214E-03
  |   38         -0.624686027656581E-04          0.393052102645972E-04          0.178603273614855E-03
  |   39         -0.124789314685917E-03          0.105779483567629E-03         -0.148931126042711E-03
  |   40         -0.184297939616345E-03          0.443584218959161E-03         -0.152886673852723E-03
  |   41          0.500148837774466E-04         -0.474978385310768E-04          0.217584708463285E-03
  |   42          0.735782925874458E-04         -0.131741334802689E-03         -0.168515133016838E-03
  |   43          0.534812338902741E-03         -0.245293074448565E-03          0.147393161305162E-02
  |   44         -0.525098593848479E-03          0.338395831730405E-03         -0.333947774275474E-03
  |   45          0.324593039295306E-03         -0.165095823761321E-03         -0.806195756076587E-03
  |   46          0.284915975581796E-03         -0.214889856694820E-03          0.155488641962740E-02
  |   47         -0.215582181034191E-03          0.469727287928097E-04         -0.172486201086312E-04
  |   48          0.528923774234077E-04         -0.383192619637329E-05         -0.421313611877096E-03
  |   49         -0.107691976584905E-03          0.328777428644908E-03          0.152132216910350E-02
  |   50         -0.504427131241556E-04         -0.184372517307442E-03          0.198979830497175E-04
  |   51          0.424413370316265E-04          0.807093910297716E-04         -0.431784935684677E-03
  |   52         -0.193946200562410E-03         -0.167892629303545E-03         -0.692186858362190E-04
  |   53          0.218754103399379E-04          0.483525673471177E-04          0.152369664500049E-03
  |   54          0.878158834411472E-04          0.108859263600651E-03         -0.127107113437338E-03
  |   55          0.318332260583758E-03          0.220652774780533E-03         -0.148583540856857E-04
  |   56         -0.789500789146120E-04         -0.105945497673889E-03          0.223414492803603E-03
  |   57         -0.819206981017397E-04         -0.104207215323464E-03         -0.207767562135700E-03
  |   58         -0.274218822933728E-03         -0.649486788515214E-04         -0.107227628785357E-03
  |   59         -0.325303611829101E-04         -0.314819878487600E-04          0.128629815587232E-03
  |   60          0.518643885779345E-04         -0.136760427950484E-04         -0.876599684851898E-04
  |   61         -0.136356425462782E-03          0.101472487986572E-03         -0.132187569547284E-03
  |   62          0.168077092771099E-04         -0.730913688148668E-04          0.122058319881182E-03
  |   63          0.179792648113842E-04         -0.857634990836046E-04         -0.111587874478065E-03
  |   64          0.232581604131729E-03          0.211203550886440E-03         -0.355010744404794E-04
  |   65         -0.924323379601028E-04         -0.118322682659167E-03          0.187591074207935E-03
  |   66         -0.964850123277384E-04         -0.124351402525018E-03         -0.198723751975462E-03
  |   67         -0.603639301646405E-04         -0.498880901145930E-03         -0.176451643505961E-03
  |   68         -0.545951333330251E-04          0.367228332643020E-04          0.129075804923021E-03
  |   69         -0.717408144193604E-04          0.427429876838421E-04         -0.106590066066192E-03
  |   70         -0.229449215614345E-03          0.375817723677730E-03          0.101428263938656E-04
  |   71         -0.253276905657091E-04          0.426627787450650E-04          0.230616689385456E-03
  |   72         -0.483632296459992E-04         -0.429066405862695E-04         -0.212515008431746E-03
  |   73          0.295780555478554E-03         -0.112278238931772E-03         -0.341408049519772E-04
  |   74          0.472118471939725E-04          0.369885296957241E-04          0.188544816824445E-03
  |   75         -0.400929522743775E-04          0.568776326649721E-04         -0.158440354622700E-03

  ------------------------------------ 
  Start decomposition of the XC Energy 
  ------------------------------------ 
  X and C from original XC functional choice 
  Hartree-Fock Energy :          0.000000000 Ha              0.000000000 eV
  X Energy            :      -4302.972646601 Ha        -117089.843179649 eV
  C Energy            :        -87.052648809 Ha          -2368.823098479 eV
  Total XC Energy     :      -4390.025295410 Ha        -119458.666278127 eV
  ------------------------------------ 
  LDA X and C from self-consistent density 
  X Energy LDA        :      -4064.302424333 Ha        -110595.295992801 eV
  C Energy LDA        :       -160.244780445 Ha          -4360.482334815 eV
  ------------------------------------ 
  End decomposition of the XC Energy 
  ------------------------------------ 

------------------------------------------------------------
  | Chemical Potential                          :    -5.31350692 eV

  Writing energy levels:
  | Potential vacuum level, "upper" slab surface:    -0.05175491 eV
  | Potential vacuum level, "lower" slab surface:    -0.05160678 eV
  | Work function ("upper" slab surface)        :     5.26175201 eV
  | Work function ("lower" slab surface)        :     5.26190014 eV
  *** Warning: band gap may exist, check the suitability to define work function using chemical potential.
  | VBM (reference: upper vacuum level)         :     5.95465317 eV
  | CBM (reference: upper vacuum level)         :     4.13546024 eV

------------------------------------------------------------------------------
  Final output of selected total energy values:

  The following output summarizes some interesting total energy values
  at the end of a run (AFTER all relaxation, molecular dynamics, etc.).

  | Total energy of the DFT / Hartree-Fock s.c.f. calculation      :       -3324933.510896665 eV
  | Final zero-broadening corrected energy (caution - metals only) :       -3324933.510896665 eV
  | For reference only, the value of 1 Hartree used in FHI-aims is :             27.211384500 eV
  | For reference only, the overall average (free atom contribution
  | + realspace contribution) of the electrostatic potential after
  | s.c.f. convergence is                                          :             -1.135351374 eV

  Before relying on these values, please be sure to understand exactly which
  total energy value is referred to by a given number. Different objects may
  all carry the same name 'total energy'. Definitions:

  Total energy of the DFT / Hartree-Fock s.c.f. calculation:
  | Note that this energy does not include ANY quantities calculated after the
  | s.c.f. cycle, in particular not ANY RPA, MP2, etc. many-body perturbation terms.

  Final zero-broadening corrected energy:
  | For metallic systems only, a broadening of the occupation numbers at the Fermi
  | level can be extrapolated back to zero broadening by an electron-gas inspired
  | formula. For all systems that are not real metals, this value can be
  | meaningless and should be avoided.

------------------------------------------------------------------------------
  Methods described in the following list of references were used in this FHI-aims run.
  If you publish the results, please make sure to cite these reference if they apply.
  FHI-aims is an academic code, and for our developers (often, Ph.D. students
  and postdocs), scientific credit in the community is essential.
  Thank you for helping us!

  For any use of FHI-aims, please cite:

    Volker Blum, Ralf Gehrke, Felix Hanke, Paula Havu, Ville Havu,
    Xinguo Ren, Karsten Reuter, and Matthias Scheffler
    'Ab initio molecular simulations with numeric atom-centered orbitals'
    Computer Physics Communications 180, 2175-2196 (2009)
    http://dx.doi.org/10.1016/j.cpc.2009.06.022


  The provided symmetry information was generated with SPGlib:

    Atsushi Togo, Yusuke Seto, Dimitar Pashov
    SPGlib 1.7.3 obtained from http://spglib.sourceforge.net
    Copyright (C) 2008 Atsushi Togo


  The ELSI infrastructure was used in your run to solve the Kohn-Sham electronic structure.
  Please check out http://elsi-interchange.org to learn more.
  If scalability is important for your project, please acknowledge ELSI by citing:

    V. W-z. Yu, F. Corsetti, A. Garcia, W. P. Huhn, M. Jacquelin, W. Jia,
    B. Lange, L. Lin, J. Lu, W. Mi, A. Seifitokaldani, A. Vazquez-Mayagoitia,
    C. Yang, H. Yang, and V. Blum
    'ELSI: A unified software interface for Kohn-Sham electronic structure solvers'
    Computer Physics Communications 222, 267-285 (2018).
    http://dx.doi.org/10.1016/j.cpc.2017.09.007


  For the real-space grid partitioning and parallelization used in this calculation, please cite:

    Ville Havu, Volker Blum, Paula Havu, and Matthias Scheffler,
    'Efficient O(N) integration for all-electron electronic structure calculation'
    'using numerically tabulated basis functions'
    Journal of Computational Physics 228, 8367-8379 (2009).
    http://dx.doi.org/10.1016/j.jcp.2009.08.008

  Of course, there are many other important community references, e.g., those cited in the
  above references. Our list is limited to references that describe implementations in the
  FHI-aims code. The reason is purely practical (length of this list) - please credit others as well.

------------------------------------------------------------
          Leaving FHI-aims.
          Date     :  20211223, Time     :  004642.016

          Computational steps:
          | Number of self-consistency cycles          :           16
          | Number of SCF (re)initializations          :            1

          Detailed time accounting                     :  max(cpu_time)    wall_clock(cpu1)
          | Total time                                  :      194.001 s         194.085 s
          | Preparation time                            :        0.438 s           0.438 s
          | Boundary condition initalization            :        0.946 s           0.946 s
          | Grid partitioning                           :        2.597 s           2.598 s
          | Preloading free-atom quantities on grid     :        0.601 s           0.601 s
          | Free-atom superposition energy              :        0.056 s           0.056 s
          | Total time for integrations                 :       29.436 s          29.435 s
          | Total time for solution of K.-S. equations  :       40.416 s          40.384 s
          | Total time for density & force components   :       88.551 s          88.554 s
          | Total time for mixing & preconditioning     :        5.277 s           5.215 s
          | Total time for Hartree multipole update     :        0.165 s           0.163 s
          | Total time for Hartree multipole sum        :       17.373 s          17.374 s
          | Total time for total energy evaluation      :        0.012 s           0.011 s
          | Total time NSC force correction             :        1.681 s           1.681 s
          | Total time for scaled ZORA corrections      :        0.000 s           0.000 s
          | Total time for vdW correction               :        5.944 s           5.944 s

          Partial memory accounting:
          | Residual value for overall tracked memory usage across tasks:     0.000000 MB (should be 0.000000 MB)
          | Peak values for overall tracked memory usage:
          |   Minimum:      199.032 MB (on task  25 after allocating temp_ham_ovlp)
          |   Maximum:      202.072 MB (on task 116 after allocating temp_ham_ovlp)
          |   Average:      201.102 MB
          | Largest tracked array allocation:
          |   Minimum:       55.556 MB (overlap_matrix on task   0)
          |   Maximum:       55.556 MB (overlap_matrix on task   0)
          |   Average:       55.556 MB
          Note:  These values currently only include a subset of arrays which are explicitly tracked.
          The "true" memory usage will be greater.

          Have a nice day.
------------------------------------------------------------
