------------------------------------------------------------
          Invoking FHI-aims ...

          When using FHI-aims, please cite the following reference:

            Volker Blum, Ralf Gehrke, Felix Hanke, Paula Havu,
            Ville Havu, Xinguo Ren, Karsten Reuter, and Matthias Scheffler,
            'Ab Initio Molecular Simulations with Numeric Atom-Centered Orbitals',
            Computer Physics Communications 180, 2175-2196 (2009)

          In addition, many other developments in FHI-aims are likely important for
          your particular application. A partial list of references is given at the end of
          this file. Thank you for giving credit to the authors of these developments.

          For any questions about FHI-aims, please visit our slack channel at

            https://fhi-aims.slack.com

          and our main development and support site at

            https://aims-git.rz-berlin.mpg.de .

          The latter site, in particular, has a wiki to collect information, as well
          as an issue tracker to log discussions, suggest improvements, and report issues
          or bugs. https://aims-git.rz-berlin.mpg.de is also the main development site
          of the project and all new and updated code versions can be obtained there.
          Please send an email to aims-coordinators@fhi-berlin.mpg.de and we will add
          you to these sites. They are for you and everyone is welcome there.

------------------------------------------------------------



  Date     :  20210721, Time     :  181045.761
  Time zero on CPU 1             :   0.149246000000000E+00  s.
  Internal wall clock time zero  :           396123045.761  s.

  FHI-aims created a unique identifier for this run for later identification
  aims_uuid : DC7688A1-5711-49F7-A979-FCF8C6E95705

  Build configuration of the current instance of FHI-aims
  -------------------------------------------------------
  FHI-aims version      : 210413
  Commit number         : e4873593e
  CMake host system     : Linux-4.12.14-122.57-default
  CMake version         : 3.5.2
  Fortran compiler      : /mpcdf/soft/SLE_12/packages/x86_64/intel_parallel_studio/2020.1/compilers_and_libraries_2020.1.217/linux/mpi/intel64/bin/mpiifort (Intel) version 19.1.0.20200306
  Fortran compiler flags: -O3 -ip -fp-model precise
  C compiler            : /mpcdf/soft/SLE_12/packages/x86_64/intel/19.1.1/bin/icc (Intel) version 19.1.0.20200306
  C compiler flags      : -O3 -ip -fp-model precise -std=gnu99
  C++ compiler          : /mpcdf/soft/SLE_12/packages/x86_64/intel/19.1.1/bin/icpc (Intel) version 19.1.0.20200306
  C++ compiler flags    : -O3 -ip -fp-model precise -std=gnu99
  Using MPI
  Using ScaLAPACK
  Using LibXC
  Using i-PI
  Using RLSY
  Linking against: /mpcdf/soft/SLE_12/packages/x86_64/intel_parallel_studio/2020.1/mkl/lib/intel64/libmkl_intel_lp64.so
                   /mpcdf/soft/SLE_12/packages/x86_64/intel_parallel_studio/2020.1/mkl/lib/intel64/libmkl_sequential.so
                   /mpcdf/soft/SLE_12/packages/x86_64/intel_parallel_studio/2020.1/mkl/lib/intel64/libmkl_core.so
                   /mpcdf/soft/SLE_12/packages/x86_64/intel_parallel_studio/2020.1/mkl/lib/intel64/libmkl_blacs_intelmpi_lp64.so
                   /mpcdf/soft/SLE_12/packages/x86_64/intel_parallel_studio/2020.1/mkl/lib/intel64/libmkl_scalapack_lp64.so

  Using      160 parallel tasks.
  Task        0 on host co4420 reporting.
  Task        1 on host co4420 reporting.
  Task        2 on host co4420 reporting.
  Task        3 on host co4420 reporting.
  Task        4 on host co4420 reporting.
  Task        5 on host co4420 reporting.
  Task        6 on host co4420 reporting.
  Task        7 on host co4420 reporting.
  Task        8 on host co4420 reporting.
  Task        9 on host co4420 reporting.
  Task       10 on host co4420 reporting.
  Task       11 on host co4420 reporting.
  Task       12 on host co4420 reporting.
  Task       13 on host co4420 reporting.
  Task       14 on host co4420 reporting.
  Task       15 on host co4420 reporting.
  Task       16 on host co4420 reporting.
  Task       17 on host co4420 reporting.
  Task       18 on host co4420 reporting.
  Task       19 on host co4420 reporting.
  Task       20 on host co4420 reporting.
  Task       21 on host co4420 reporting.
  Task       22 on host co4420 reporting.
  Task       23 on host co4420 reporting.
  Task       24 on host co4420 reporting.
  Task       25 on host co4420 reporting.
  Task       26 on host co4420 reporting.
  Task       27 on host co4420 reporting.
  Task       28 on host co4420 reporting.
  Task       29 on host co4420 reporting.
  Task       30 on host co4420 reporting.
  Task       31 on host co4420 reporting.
  Task       32 on host co4420 reporting.
  Task       33 on host co4420 reporting.
  Task       34 on host co4420 reporting.
  Task       35 on host co4420 reporting.
  Task       36 on host co4420 reporting.
  Task       37 on host co4420 reporting.
  Task       38 on host co4420 reporting.
  Task       39 on host co4420 reporting.
  Task       40 on host co4421 reporting.
  Task       41 on host co4421 reporting.
  Task       42 on host co4421 reporting.
  Task       43 on host co4421 reporting.
  Task       44 on host co4421 reporting.
  Task       45 on host co4421 reporting.
  Task       46 on host co4421 reporting.
  Task       47 on host co4421 reporting.
  Task       48 on host co4421 reporting.
  Task       49 on host co4421 reporting.
  Task       50 on host co4421 reporting.
  Task       51 on host co4421 reporting.
  Task       52 on host co4421 reporting.
  Task       53 on host co4421 reporting.
  Task       54 on host co4421 reporting.
  Task       55 on host co4421 reporting.
  Task       56 on host co4421 reporting.
  Task       57 on host co4421 reporting.
  Task       58 on host co4421 reporting.
  Task       59 on host co4421 reporting.
  Task       60 on host co4421 reporting.
  Task       61 on host co4421 reporting.
  Task       62 on host co4421 reporting.
  Task       63 on host co4421 reporting.
  Task       64 on host co4421 reporting.
  Task       65 on host co4421 reporting.
  Task       66 on host co4421 reporting.
  Task       67 on host co4421 reporting.
  Task       68 on host co4421 reporting.
  Task       69 on host co4421 reporting.
  Task       70 on host co4421 reporting.
  Task       71 on host co4421 reporting.
  Task       72 on host co4421 reporting.
  Task       73 on host co4421 reporting.
  Task       74 on host co4421 reporting.
  Task       75 on host co4421 reporting.
  Task       76 on host co4421 reporting.
  Task       77 on host co4421 reporting.
  Task       78 on host co4421 reporting.
  Task       79 on host co4421 reporting.
  Task       80 on host co4422 reporting.
  Task       81 on host co4422 reporting.
  Task       82 on host co4422 reporting.
  Task       83 on host co4422 reporting.
  Task       84 on host co4422 reporting.
  Task       85 on host co4422 reporting.
  Task       86 on host co4422 reporting.
  Task       87 on host co4422 reporting.
  Task       88 on host co4422 reporting.
  Task       89 on host co4422 reporting.
  Task       90 on host co4422 reporting.
  Task       91 on host co4422 reporting.
  Task       92 on host co4422 reporting.
  Task       93 on host co4422 reporting.
  Task       94 on host co4422 reporting.
  Task       95 on host co4422 reporting.
  Task       96 on host co4422 reporting.
  Task       97 on host co4422 reporting.
  Task       98 on host co4422 reporting.
  Task       99 on host co4422 reporting.
  Task      100 on host co4422 reporting.
  Task      101 on host co4422 reporting.
  Task      102 on host co4422 reporting.
  Task      103 on host co4422 reporting.
  Task      104 on host co4422 reporting.
  Task      105 on host co4422 reporting.
  Task      106 on host co4422 reporting.
  Task      107 on host co4422 reporting.
  Task      108 on host co4422 reporting.
  Task      109 on host co4422 reporting.
  Task      110 on host co4422 reporting.
  Task      111 on host co4422 reporting.
  Task      112 on host co4422 reporting.
  Task      113 on host co4422 reporting.
  Task      114 on host co4422 reporting.
  Task      115 on host co4422 reporting.
  Task      116 on host co4422 reporting.
  Task      117 on host co4422 reporting.
  Task      118 on host co4422 reporting.
  Task      119 on host co4422 reporting.
  Task      120 on host co4423 reporting.
  Task      121 on host co4423 reporting.
  Task      122 on host co4423 reporting.
  Task      123 on host co4423 reporting.
  Task      124 on host co4423 reporting.
  Task      125 on host co4423 reporting.
  Task      126 on host co4423 reporting.
  Task      127 on host co4423 reporting.
  Task      128 on host co4423 reporting.
  Task      129 on host co4423 reporting.
  Task      130 on host co4423 reporting.
  Task      131 on host co4423 reporting.
  Task      132 on host co4423 reporting.
  Task      133 on host co4423 reporting.
  Task      134 on host co4423 reporting.
  Task      135 on host co4423 reporting.
  Task      136 on host co4423 reporting.
  Task      137 on host co4423 reporting.
  Task      138 on host co4423 reporting.
  Task      139 on host co4423 reporting.
  Task      140 on host co4423 reporting.
  Task      141 on host co4423 reporting.
  Task      142 on host co4423 reporting.
  Task      143 on host co4423 reporting.
  Task      144 on host co4423 reporting.
  Task      145 on host co4423 reporting.
  Task      146 on host co4423 reporting.
  Task      147 on host co4423 reporting.
  Task      148 on host co4423 reporting.
  Task      149 on host co4423 reporting.
  Task      150 on host co4423 reporting.
  Task      151 on host co4423 reporting.
  Task      152 on host co4423 reporting.
  Task      153 on host co4423 reporting.
  Task      154 on host co4423 reporting.
  Task      155 on host co4423 reporting.
  Task      156 on host co4423 reporting.
  Task      157 on host co4423 reporting.
  Task      158 on host co4423 reporting.
  Task      159 on host co4423 reporting.

  Performing system and environment tests:
  | Environment variable OMP_NUM_THREADS correctly set to 1.
  | Checking for ScaLAPACK...
  | Testing pdtran()...
  | All pdtran() tests passed.

  Obtaining array dimensions for all initial allocations:
  
  -----------------------------------------------------------------------
  Parsing control.in (first pass over file, find array dimensions only).
  The contents of control.in will be repeated verbatim below
  unless switched off by setting 'verbatim_writeout .false.' .
  in the first line of control.in .
  -----------------------------------------------------------------------
  
  ##### Physical settings  ################
  xc                 pbe
  spin               none
  charge      0.0
  relativistic       atomic_zora scalar
  #elsi_restart read
  # SCF settings
  relax_geometry  trm 1e-03
  use_symmetric_forces .true.
  
  #vdw_correction_hirshfeld
  occupation_type gaussian       0.01
  # k-grid settings  (to be adjusted)
  k_grid  4 4 1
  #empty_states 8
  include_spin_orbit non_self_consistent
  
  #output cube stm -0.5
  #mixer   pulay
  #n_max_pulay        12 # high for metal
  #charge_mix_param   0.07 #low for metal
  
  #output cube stm -0.5
  #many_body_dispersion_nl    beta=0.81
  ################################################################################
  #
  #  FHI-aims code project
  # Volker Blum, Fritz Haber Institute Berlin, 2009
  #
  #  Suggested "tight" defaults for S atom (to be pasted into control.in file)
  #
  #  Revised Jan 04, 2011, following tests (SiC) done by Lydia Nemec:
  #     d and g functions of tier 2 now enabled by default.
  #
  ################################################################################
    species        S
  #     global species definitions
      nucleus             16
      mass                32.065
  #
      l_hartree           6
  #
      cut_pot             4.0          2.0  1.0
      basis_dep_cutoff    1e-4
  #
      radial_base         44 7.0
      radial_multiplier   2
      angular_grids       specified
        division   0.4665  110
        division   0.5810  194
        division   0.7139  302
        division   0.8274  434
  #      division   0.9105  590
  #      division   1.0975  770
  #      division   1.2028  974
  #      outer_grid  974
        outer_grid  434
  ################################################################################
  #
  #  Definition of "minimal" basis
  #
  ################################################################################
  #     valence basis states
      valence      3  s   2.
      valence      3  p   4.
  #     ion occupancy
      ion_occ      3  s   1.
      ion_occ      3  p   3.
  ################################################################################
  #
  #  Suggested additional basis functions. For production calculations,
  #  uncomment them one after another (the most important basis functions are
  #  listed first).
  #
  #  Constructed for dimers: 1.6 A, 1.9 A, 2.5 A, 3.25 A, 4.0 A
  #
  ################################################################################
  #  "First tier" - improvements: -652.81 meV to -45.53 meV
       ionic 3 d auto
       hydro 2 p 1.8
       hydro 4 f 7
       ionic 3 s auto
  #  "Second tier" - improvements: -30.20 meV to -1.74 meV
       hydro 4 d 6.2
       hydro 5 g 10.8
  #     hydro 4 p 4.9
  #     hydro 5 f 10
  #     hydro 1 s 0.8
  #  "Third tier" - improvements: -1.04 meV to -0.20 meV
  #     hydro 3 d 3.9
  #     hydro 3 d 2.7
  #     hydro 5 g 12
  #     hydro 4 p 10.4
  #     hydro 5 f 12.4
  #     hydro 2 s 1.9
  #  "Fourth tier" - improvements: -0.35 meV to -0.06 meV
  #     hydro 4 d 10.4
  #     hydro 4 p 7.2
  #     hydro 4 d 10
  #     hydro 5 g 19.2
  #     hydro 4 s 12
  
  ################################################################################
  #
  # For methods that use the localized form of the "resolution of identity" for
  # the two-electron Coulomb operator (RI_method LVL), particularly Hartree-Fock and
  # hybrid density functional calculations, the highest accuracy can be obtained by
  # uncommenting the line beginning with "for_aux"  below, thus adding an extra g radial
  # function to the construction of the product basis set for the expansion.
  # See Ref. New J. Phys. 17, 093020 (2015) for more information, particularly Figs. 1 and 6.
  #
  ################################################################################
  #
  # for_aux hydro 5 g 6.0
  ################################################################################
  #
  #  FHI-aims code project
  # Volker Blum, Fritz Haber Institute Berlin, 2009
  #
  #  Suggested "tight" defaults for Mo atom (to be pasted into control.in file)
  #
  ################################################################################
    species        Mo
  #     global species definitions
      nucleus             42
      mass                95.94
  #
      l_hartree           6
  #
      cut_pot             4.0  2.0  1.0
      basis_dep_cutoff    1e-4
  #
      radial_base         59 7.0
      radial_multiplier   2
      angular_grids specified
        division   0.3117   50
        division   0.6750  110
        division   1.0351  194
        division   1.2073  302
        division   1.6402  434
  #      division   1.9185  590
  #      division   2.0237  770
  #      division   2.0980  974
  #      division   2.7972 1202
  #      outer_grid  974
        outer_grid  434
  ################################################################################
  #
  #  Definition of "minimal" basis
  #
  ################################################################################
  #     valence basis states
      valence      5  s   1.
      valence      4  p   6.
      valence      4  d   5.
  #     ion occupancy
      ion_occ     5  s   0.
      ion_occ     4  p   6.
      ion_occ     4  d   4.
  ################################################################################
  #
  #  Suggested additional basis functions. For production calculations,
  #  uncomment them one after another (the most important basis functions are
  #  listed first).
  #
  #  Constructed for dimers: 1.675 A, 1.9 A, 2.375 A, 3.00 A, 4.00 A
  #
  ################################################################################
  #  "First tier"  - max. impr. -711.23  meV, min. impr. -21.07 meV
       hydro 4 f 8.4
       hydro 3 d 2.8
       ionic 5 p auto
       hydro 5 g 12
       ionic 5 s auto
  #  "Second tier" - max. impr. -39.38  meV, min. impr. -2.68 meV
  #     hydro 4 f 12.4
  #     hydro 3 d 3.3
  #     hydro 6 h 17.2
  #     hydro 4 f 7.6
  #     hydro 3 p 3.0
  #     hydro 1 s 0.65
  #  "Third tier"  - max. impr. -5.50 meV, min. impr. -0.47 meV
  #     hydro 4 f 29.2
  #     hydro 5 g 11.2
  #     hydro 3 d 6.8
  #     hydro 6 h 14.8
  #     hydro 2 p 2.3
  #     hydro 4 s 3.8
  #  "Fourth tier"  - max. impr. -0.58 meV, min. impr. -0.19 meV
  #     hydro 5 f 6.8
  #     hydro 5 d 14.8
  #     hydro 6 s 7.8
  #     hydro 5 g 20.8
  #     hydro 5 d 10.4
  #     hydro 5 p 9.8
  #  Further functions - -0.17 meV and below
  #     hydro 5 d 3.2
  ################################################################################
  #
  #  FHI-aims code project
  # Volker Blum, Fritz Haber Institute Berlin, 2009
  #
  #  Suggested "tight" defaults for W atom (to be pasted into control.in file)
  #
  ################################################################################
    species          W
  #     global species definitions
      nucleus        74
      mass           183.84
  #
      l_hartree      6
  #
      cut_pot        4.0  2.0  1.0
      basis_dep_cutoff    1e-4
  #
      radial_base    71  7.0
      radial_multiplier  2
      angular_grids specified
        division   0.2901   50
        division   0.6986  110
        division   1.0528  194
        division   1.2659  302
        division   1.5223  434
  #      division   1.8111  590
  #      division   2.0105  770
  #      division   2.0413  974
  #      division   2.8804 1202
  #      outer_grid  974
        outer_grid  434
  ################################################################################
  #
  #  Definition of "minimal" basis
  #
  ################################################################################
  #     valence basis states
      valence      6  s   2.
      valence      5  p   6.
      valence      5  d   4.
      valence      4  f  14.
  #     ion occupancy
      ion_occ      6  s   1.
      ion_occ      5  p   6.
      ion_occ      5  d   3.
      ion_occ      4  f  14.
  ################################################################################
  #
  #  Suggested additional basis functions. For production calculations,
  #  uncomment them one after another (the most important basis functions are
  #  listed first).
  #
  #  Constructed for dimers: 1.775, 1.99, 2.50, 3.25, 4.50 AA
  #
  ################################################################################
  #
  #  "First tier" - improvements: -603.77 meV to -28.99 meV
       hydro 4 f 7.8
       hydro 4 d 5.8
       ionic 6 p auto
       hydro 5 g 12.4
       ionic 6 s auto
  #  "Second tier" - improvements: -28.30 meV to -1.31 meV
  #     hydro 6 h 16.8
  #     ionic 5 d auto
  #     hydro 4 f 8.6
  #     hydro 5 g 16.8
  #     hydro 5 d 8.4
  #     hydro 3 p 3.3
  #     hydro 1 s 0.55
  #  "Third tier" - max. impr. -1.79 meV, min. impr. -0.26 meV
  #     hydro 5 f 10.8
  #     hydro 5 g 34.4
  #     hydro 6 h 20.8
  #     hydro 5 g 12.8
  #     hydro 2 p 1.6
  #     hydro 4 s 4.7
  #     hydro 6 d 18.4
  #  "Fourth tier" -0.46 max. impr. - meV, min. impr. -0.09 meV
  #     hydro 6 h 21.6
  #     hydro 5 f 22.4
  #     hydro 4 f 4
  #     hydro 5 p 9.6
  #     hydro 6 d 17.2
  #     hydro 3 p 5.2
  #     hydro 5 g 4.7
  #     hydro 6 s 7.6
  ################################################################################
  #
  #  FHI-aims code project
  # Volker Blum, Fritz Haber Institute Berlin, 2009
  #
  #  Suggested "tight" defaults for Se atom (to be pasted into control.in file)
  #
  ################################################################################
    species        Se
  #     global species definitions
      nucleus             34
      mass                78.96
  #
      l_hartree           6
  #
      cut_pot             4.0          2.0  1.0
      basis_dep_cutoff    1e-4
  #
      radial_base         55 7.0
      radial_multiplier   2
      angular_grids       specified
        division   0.0830  110
        division   0.1357  194
        division   0.7377  302
        division   0.8610  434
  #      division   0.9640  590
  #      division   1.0773  770
  #      division   2.5539  974
  #      outer_grid  974
        outer_grid  434
  ################################################################################
  #
  #  Definition of "minimal" basis
  #
  ################################################################################
  #     valence basis states
      valence      4  s   2.
      valence      4  p   4.
      valence      3  d  10.
  #     ion occupancy
      ion_occ      4  s   1.
      ion_occ      4  p   3.
      ion_occ      3  d  10.
  ################################################################################
  #
  #  Suggested additional basis functions. For production calculations,
  #  uncomment them one after another (the most important basis functions are
  #  listed first).
  #
  #  Constructed for dimers: 1.85 A, 2.15 A, 2.50 A, 3.00 A, 4.00 A
  #
  ################################################################################
  #  "First tier" - improvements: -336.21 meV to -36.85 meV
       hydro 3 d 4.3
       hydro 2 p 1.6
       hydro 4 f 7.2
       ionic 4 s auto
  #  "Second tier" - improvements: -14.39 meV to -1.49 meV
  #     hydro 5 g 10.4
  #     hydro 4 p 4.5
  #     hydro 4 d 6.2
  #     hydro 4 f 11.2
  #     hydro 1 s 0.65
  #     hydro 6 h 15.2
  #  "Third tier" - improvements: -0.46 meV and below
  #     hydro 5 g 14.4
  #     ionic 4 d auto
  #     hydro 4 f 22.4
  #     hydro 5 f 7.4
  #     hydro 5 p 8
  #     hydro 5 s 9.4
  #  "Fourth tier" - improvements: -0.12 meV and below
  #     hydro 5 d 11.6
  #     hydro 6 h 18
  #     hydro 4 p 4
  #     hydro 5 f 16
  #     hydro 4 s 3.9
  
  
  
  -----------------------------------------------------------------------
  Completed first pass over input file control.in .
  -----------------------------------------------------------------------
  
  
  -----------------------------------------------------------------------
  Parsing geometry.in (first pass over file, find array dimensions only).
  The contents of geometry.in will be repeated verbatim below
  unless switched off by setting 'verbatim_writeout .false.' .
  in the first line of geometry.in .
  -----------------------------------------------------------------------
  
  #
  # This is the geometry file that corresponds to the current relaxation step.
  # If you do not want this file to be written, set the "write_restart_geometry" flag to .false.
  #  aims_uuid : 47ECAC7E-4A89-4FD2-A327-7E810B401FCD
  #
  lattice_vector     15.90000000      0.00000000      0.00000000
  lattice_vector     -7.95000000     13.76980392      0.00000000
  lattice_vector      0.00000000      0.00000000    100.00000000
  atom       0.01556864      0.94508234      2.62461982 W
  atom       1.65175533      1.95821408      4.12387086 S
  atom       1.57451974      1.84703309      0.98696963 S
  atom      -1.53329616      3.70473956      2.63668823 W
  atom       0.22440019      4.71936548      4.11082311 S
  atom       0.00484315      4.59259537      0.96488779 S
  atom      -3.14869774      6.42593111      2.62455836 W
  atom      -1.45318636      7.33629227      4.12385085 S
  atom      -1.58803551      7.32499410      0.98688559 S
  atom      -4.76982242      9.17361095      2.62111842 W
  atom      -3.14778741     10.08328035      4.16589723 S
  atom      -3.19119061     10.09572292      1.03129973 S
  atom      -6.36549335     11.93690380      2.62114537 W
  atom      -4.76655692     12.88702154      4.16577388 S
  atom      -4.77750561     12.84323311      1.03148066 S
  atom       3.18001330      0.95173269      2.56626882 W
  atom       4.71641684      1.91477148      4.13788801 S
  atom       4.79442023      1.84398777      0.99320000 S
  atom       1.68004199      3.74533317      2.47794617 W
  atom       3.20859837      4.59685677      0.84397015 S
  atom       0.10834004      6.46693476      2.47787295 W
  atom       1.61015679      7.36514063      0.84387036 S
  atom      -1.56098036      9.16303294      2.56620795 W
  atom       0.04155132     10.01202178      4.13764472 S
  atom       0.01926002     10.11502917      0.99332904 S
  atom      -3.17718697     11.93540734      2.60733739 W
  atom      -1.59667313     12.84800968      4.19017741 S
  atom      -1.57944327     12.85797116      1.04618345 S
  atom       6.35316091      0.92856465      2.61978609 W
  atom       7.92528189      1.83931489      4.21882217 S
  atom       7.96746526      1.83866728      1.07438044 S
  atom       4.69795099      3.70475391      2.51078848 W
  atom       6.23358838      4.58695501      4.15462881 S
  atom       6.36325455      4.56804974      1.01053370 S
  atom       3.11113525      6.38639311      2.40771050 W
  atom       4.56191124      7.22373384      4.10304047 S
  atom       4.74463007      7.32925356      0.94733704 S
  atom       1.58265420      9.10081390      2.51073382 W
  atom       3.11406141      9.98998803      4.15464273 S
  atom       3.16265564     10.11179060      1.01042208 S
  atom       0.00559644     11.92280173      2.61976966 W
  atom       1.58055336     12.82866499      4.21875654 S
  atom       1.60112399     12.86551163      1.07440982 S
  atom       9.54227536      0.91926197      2.66305524 W
  atom      11.13679986      1.83992875      4.24570378 S
  atom      11.14146778      1.84261065      1.10258951 S
  atom       7.92914113      3.67237552      2.64144246 W
  atom       9.51910261      4.59504551      4.22880098 S
  atom       9.54822282      4.58028647      1.08781803 S
  atom       6.28918444      6.39839570      2.58514852 W
  atom       7.88133461      7.31803309      4.18936391 S
  atom       7.93795692      7.32836011      1.06015259 S
  atom       4.71051738      9.13230489      2.58515488 W
  atom       6.30320278     10.05125756      4.18937063 S
  atom       6.34047998     10.09511968      1.06016093 S
  atom       3.17023918     11.91565411      2.64143665 W
  atom       4.76404409     12.83122390      4.22884683 S
  atom       4.76584687     12.86382159      1.08779757 S
  atom      12.73257756      0.92572361      2.67182966 W
  atom      14.35692803      1.87155290      4.22124766 S
  atom      14.30631905      1.85389258      1.08371752 S
  atom      11.14300008      3.67908162      2.67181949 W
  atom      12.77429695      4.61278716      4.22124022 S
  atom      12.73369234      4.57774023      1.08368924 S
  atom       9.52846736      6.42094316      2.64720175 W
  atom      11.14958146      7.34527243      4.20228209 S
  atom      11.12598640      7.32644297      1.06531726 S
  atom       7.92332471      9.16456331      2.63119966 W
  atom       9.53139652     10.09278462      4.19286337 S
  atom       9.52185185     10.08728998      1.05833486 S
  atom       6.34989579     11.92613560      2.64721472 W
  atom       7.96094933     12.86811760      4.20228206 S
  atom       7.93286303     12.85714001      1.06538960 S
  #
  # What follows is the current estimated Hessian matrix constructed by the BFGS algorithm.
  # This is NOT the true Hessian matrix of the system.
  # If you do not want this information here, switch it off using the "hessian_to_restart_geometry" keyword.
  #
  trust_radius             0.0016080154
  hessian_file
  
  -----------------------------------------------------------------------
  Completed first pass over input file geometry.in .
  -----------------------------------------------------------------------
  

  Basic array size parameters:
  | Number of species                 :        4
  | Number of atoms                   :       73
  | Number of lattice vectors         :        3
  | Max. basis fn. angular momentum   :        4
  | Max. atomic/ionic basis occupied n:        6
  | Max. number of basis fn. types    :        3
  | Max. radial fns per species/type  :       14
  | Max. logarithmic grid size        :     1483
  | Max. radial integration grid size :      143
  | Max. angular integration grid size:      434
  | Max. angular grid division number :        8
  | Radial grid for Hartree potential :     1483
  | Number of spin channels           :        1

------------------------------------------------------------
          Reading file control.in.
------------------------------------------------------------
  XC: Using PBE gradient-corrected functionals.
  Spin treatment: No spin polarisation.
  Charge =   0.000000E+00: Neutral system requested explicitly.
  Scalar relativistic treatment of kinetic energy: on-site free-atom approximation to ZORA.
  Geometry relaxation: Modified BFGS - TRM (trust radius method) for lattice optimization.
  Convergence accuracy for geometry relaxation: Maximum force <   0.100000E-02 eV/A.
  Occupation type: Gaussian broadening, width =   0.100000E-01 eV.
  Found k-point grid:         4         4         1
  Calculating non-self-consistent second-variational spin-orbit coupling after scf-cycle
 
  Reading configuration options for species S                   .
  | Found nuclear charge :  16.0000
  | Found atomic mass :    32.0650000000000      amu
  | Found l_max for Hartree potential  :   6
  | Found cutoff potl. onset [A], width [A], scale factor :    4.00000    2.00000    1.00000
  | Threshold for basis-dependent cutoff potential is   0.100000E-03
  | Found data for basic radial integration grid :    44 points, outermost radius =    7.000 A
  | Found multiplier for basic radial grid :   2
  | Found angular grid specification: user-specified.
  | Specified grid contains     5 separate shells.
  | Check grid settings after all constraints further below.
  | Found free-atom valence shell :  3 s   2.000
  | Found free-atom valence shell :  3 p   4.000
  | Found free-ion valence shell :  3 s   1.000
  | Found free-ion valence shell :  3 p   3.000
  | Found ionic basis function :  3 d , default cutoff radius.
  | Found hydrogenic basis function :  2 p   1.800
  | Found hydrogenic basis function :  4 f   7.000
  | Found ionic basis function :  3 s , default cutoff radius.
  | Found hydrogenic basis function :  4 d   6.200
  | Found hydrogenic basis function :  5 g  10.800
  Species S                   : Missing cutoff potential type.
  Defaulting to exp(1/x)/(1-x)^2 type cutoff potential.
  Species S : No 'logarithmic' tag. Using default grid for free atom:
  | Default logarithmic grid data [bohr] : 0.1000E-03 0.1000E+03 0.1012E+01
  | Will include ionic basis functions of  2.0-fold positive S                    ion.
  Species S : On-site basis accuracy parameter (for Gram-Schmidt orthonormalisation) not specified.
  Using default value basis_acc =  0.1000000E-03.
  Species S                   : Using default innermost maximum threshold i_radial=  2 for radial functions.
  Species S                   : Default cutoff onset for free atom density etc. : 0.40000000E+01 AA.
  Species S                   : Basic radial grid will be enhanced according to radial_multiplier =   2, to contain    89 grid points.
 
  Reading configuration options for species Mo                  .
  | Found nuclear charge :  42.0000
  | Found atomic mass :    95.9400000000000      amu
  | Found l_max for Hartree potential  :   6
  | Found cutoff potl. onset [A], width [A], scale factor :    4.00000    2.00000    1.00000
  | Threshold for basis-dependent cutoff potential is   0.100000E-03
  | Found data for basic radial integration grid :    59 points, outermost radius =    7.000 A
  | Found multiplier for basic radial grid :   2
  | Found angular grid specification: user-specified.
  | Specified grid contains     6 separate shells.
  | Check grid settings after all constraints further below.
  | Found free-atom valence shell :  5 s   1.000
  | Found free-atom valence shell :  4 p   6.000
  | Found free-atom valence shell :  4 d   5.000
  | Found free-ion valence shell :  5 s   0.000
  | Found free-ion valence shell :  4 p   6.000
  | Found free-ion valence shell :  4 d   4.000
  | Found hydrogenic basis function :  4 f   8.400
  | Found hydrogenic basis function :  3 d   2.800
  | Found ionic basis function :  5 p , default cutoff radius.
  | Found hydrogenic basis function :  5 g  12.000
  | Found ionic basis function :  5 s , default cutoff radius.
  Species Mo                  : Missing cutoff potential type.
  Defaulting to exp(1/x)/(1-x)^2 type cutoff potential.
  Species Mo: No 'logarithmic' tag. Using default grid for free atom:
  | Default logarithmic grid data [bohr] : 0.1000E-03 0.1000E+03 0.1012E+01
  | Will include ionic basis functions of  2.0-fold positive Mo                   ion.
  Species Mo: On-site basis accuracy parameter (for Gram-Schmidt orthonormalisation) not specified.
  Using default value basis_acc =  0.1000000E-03.
  Species Mo                  : Using default innermost maximum threshold i_radial=  2 for radial functions.
  Species Mo                  : Default cutoff onset for free atom density etc. : 0.40000000E+01 AA.
  Species Mo                  : Basic radial grid will be enhanced according to radial_multiplier =   2, to contain   119 grid points.
 
  Reading configuration options for species W                   .
  | Found nuclear charge :  74.0000
  | Found atomic mass :    183.840000000000      amu
  | Found l_max for Hartree potential  :   6
  | Found cutoff potl. onset [A], width [A], scale factor :    4.00000    2.00000    1.00000
  | Threshold for basis-dependent cutoff potential is   0.100000E-03
  | Found data for basic radial integration grid :    71 points, outermost radius =    7.000 A
  | Found multiplier for basic radial grid :   2
  | Found angular grid specification: user-specified.
  | Specified grid contains     6 separate shells.
  | Check grid settings after all constraints further below.
  | Found free-atom valence shell :  6 s   2.000
  | Found free-atom valence shell :  5 p   6.000
  | Found free-atom valence shell :  5 d   4.000
  | Found free-atom valence shell :  4 f  14.000
  | Found free-ion valence shell :  6 s   1.000
  | Found free-ion valence shell :  5 p   6.000
  | Found free-ion valence shell :  5 d   3.000
  | Found free-ion valence shell :  4 f  14.000
  | Found hydrogenic basis function :  4 f   7.800
  | Found hydrogenic basis function :  4 d   5.800
  | Found ionic basis function :  6 p , default cutoff radius.
  | Found hydrogenic basis function :  5 g  12.400
  | Found ionic basis function :  6 s , default cutoff radius.
  Species W                   : Missing cutoff potential type.
  Defaulting to exp(1/x)/(1-x)^2 type cutoff potential.
  Species W : No 'logarithmic' tag. Using default grid for free atom:
  | Default logarithmic grid data [bohr] : 0.1000E-03 0.1000E+03 0.1012E+01
  | Will include ionic basis functions of  2.0-fold positive W                    ion.
  Species W : On-site basis accuracy parameter (for Gram-Schmidt orthonormalisation) not specified.
  Using default value basis_acc =  0.1000000E-03.
  Species W                   : Using default innermost maximum threshold i_radial=  2 for radial functions.
  Species W                   : Default cutoff onset for free atom density etc. : 0.40000000E+01 AA.
  Species W                   : Basic radial grid will be enhanced according to radial_multiplier =   2, to contain   143 grid points.
 
  Reading configuration options for species Se                  .
  | Found nuclear charge :  34.0000
  | Found atomic mass :    78.9600000000000      amu
  | Found l_max for Hartree potential  :   6
  | Found cutoff potl. onset [A], width [A], scale factor :    4.00000    2.00000    1.00000
  | Threshold for basis-dependent cutoff potential is   0.100000E-03
  | Found data for basic radial integration grid :    55 points, outermost radius =    7.000 A
  | Found multiplier for basic radial grid :   2
  | Found angular grid specification: user-specified.
  | Specified grid contains     5 separate shells.
  | Check grid settings after all constraints further below.
  | Found free-atom valence shell :  4 s   2.000
  | Found free-atom valence shell :  4 p   4.000
  | Found free-atom valence shell :  3 d  10.000
  | Found free-ion valence shell :  4 s   1.000
  | Found free-ion valence shell :  4 p   3.000
  | Found free-ion valence shell :  3 d  10.000
  | Found hydrogenic basis function :  3 d   4.300
  | Found hydrogenic basis function :  2 p   1.600
  | Found hydrogenic basis function :  4 f   7.200
  | Found ionic basis function :  4 s , default cutoff radius.
  Species Se                  : Missing cutoff potential type.
  Defaulting to exp(1/x)/(1-x)^2 type cutoff potential.
  Species Se: No 'logarithmic' tag. Using default grid for free atom:
  | Default logarithmic grid data [bohr] : 0.1000E-03 0.1000E+03 0.1012E+01
  | Will include ionic basis functions of  2.0-fold positive Se                   ion.
  Species Se: On-site basis accuracy parameter (for Gram-Schmidt orthonormalisation) not specified.
  Using default value basis_acc =  0.1000000E-03.
  Species Se                  : Using default innermost maximum threshold i_radial=  2 for radial functions.
  Species Se                  : Default cutoff onset for free atom density etc. : 0.40000000E+01 AA.
  Species Se                  : Basic radial grid will be enhanced according to radial_multiplier =   2, to contain   111 grid points.
 
  Finished reading input file 'control.in'.
 
------------------------------------------------------------


------------------------------------------------------------
          Reading geometry description geometry.in.
------------------------------------------------------------
  Found keyword 'hessian_file', indicating that this is the continuation of a structure optimization.
  Verifying the existence of the file 'hessian.aims' on all processors
  | The smallest distance between any two atoms is         2.37833535 AA.
  | The first atom of this pair is atom number                     22 .
  | The second atom of this pair is atom number                    35 .
  | Wigner-Seitz cell of the first atom image           0     1     0 .
  | (The Wigner-Seitz cell of the second atom is 0 0 0  by definition.)

  Symmetry information by spglib:
  | Precision set to  0.1E-04
  | Number of Operations  : 1
  | Space group           : 1
  | International         : P1
  | Schoenflies           : C1^1
  Input structure read successfully.
  The structure contains       73 atoms,  and a total of       2618.000 electrons.

  Input geometry:
  | Unit cell:
  |       15.90000000        0.00000000        0.00000000
  |       -7.95000000       13.76980392        0.00000000
  |        0.00000000        0.00000000      100.00000000
  | Atomic structure:
  |       Atom                x [A]            y [A]            z [A]
  |    1: Species W             0.01556864        0.94508234        2.62461982
  |    2: Species S             1.65175533        1.95821408        4.12387086
  |    3: Species S             1.57451974        1.84703309        0.98696963
  |    4: Species W            -1.53329616        3.70473956        2.63668823
  |    5: Species S             0.22440019        4.71936548        4.11082311
  |    6: Species S             0.00484315        4.59259537        0.96488779
  |    7: Species W            -3.14869774        6.42593111        2.62455836
  |    8: Species S            -1.45318636        7.33629227        4.12385085
  |    9: Species S            -1.58803551        7.32499410        0.98688559
  |   10: Species W            -4.76982242        9.17361095        2.62111842
  |   11: Species S            -3.14778741       10.08328035        4.16589723
  |   12: Species S            -3.19119061       10.09572292        1.03129973
  |   13: Species W            -6.36549335       11.93690380        2.62114537
  |   14: Species S            -4.76655692       12.88702154        4.16577388
  |   15: Species S            -4.77750561       12.84323311        1.03148066
  |   16: Species W             3.18001330        0.95173269        2.56626882
  |   17: Species S             4.71641684        1.91477148        4.13788801
  |   18: Species S             4.79442023        1.84398777        0.99320000
  |   19: Species W             1.68004199        3.74533317        2.47794617
  |   20: Species S             3.20859837        4.59685677        0.84397015
  |   21: Species W             0.10834004        6.46693476        2.47787295
  |   22: Species S             1.61015679        7.36514063        0.84387036
  |   23: Species W            -1.56098036        9.16303294        2.56620795
  |   24: Species S             0.04155132       10.01202178        4.13764472
  |   25: Species S             0.01926002       10.11502917        0.99332904
  |   26: Species W            -3.17718697       11.93540734        2.60733739
  |   27: Species S            -1.59667313       12.84800968        4.19017741
  |   28: Species S            -1.57944327       12.85797116        1.04618345
  |   29: Species W             6.35316091        0.92856465        2.61978609
  |   30: Species S             7.92528189        1.83931489        4.21882217
  |   31: Species S             7.96746526        1.83866728        1.07438044
  |   32: Species W             4.69795099        3.70475391        2.51078848
  |   33: Species S             6.23358838        4.58695501        4.15462881
  |   34: Species S             6.36325455        4.56804974        1.01053370
  |   35: Species W             3.11113525        6.38639311        2.40771050
  |   36: Species S             4.56191124        7.22373384        4.10304047
  |   37: Species S             4.74463007        7.32925356        0.94733704
  |   38: Species W             1.58265420        9.10081390        2.51073382
  |   39: Species S             3.11406141        9.98998803        4.15464273
  |   40: Species S             3.16265564       10.11179060        1.01042208
  |   41: Species W             0.00559644       11.92280173        2.61976966
  |   42: Species S             1.58055336       12.82866499        4.21875654
  |   43: Species S             1.60112399       12.86551163        1.07440982
  |   44: Species W             9.54227536        0.91926197        2.66305524
  |   45: Species S            11.13679986        1.83992875        4.24570378
  |   46: Species S            11.14146778        1.84261065        1.10258951
  |   47: Species W             7.92914113        3.67237552        2.64144246
  |   48: Species S             9.51910261        4.59504551        4.22880098
  |   49: Species S             9.54822282        4.58028647        1.08781803
  |   50: Species W             6.28918444        6.39839570        2.58514852
  |   51: Species S             7.88133461        7.31803309        4.18936391
  |   52: Species S             7.93795692        7.32836011        1.06015259
  |   53: Species W             4.71051738        9.13230489        2.58515488
  |   54: Species S             6.30320278       10.05125756        4.18937063
  |   55: Species S             6.34047998       10.09511968        1.06016093
  |   56: Species W             3.17023918       11.91565411        2.64143665
  |   57: Species S             4.76404409       12.83122390        4.22884683
  |   58: Species S             4.76584687       12.86382159        1.08779757
  |   59: Species W            12.73257756        0.92572361        2.67182966
  |   60: Species S            14.35692803        1.87155290        4.22124766
  |   61: Species S            14.30631905        1.85389258        1.08371752
  |   62: Species W            11.14300008        3.67908162        2.67181949
  |   63: Species S            12.77429695        4.61278716        4.22124022
  |   64: Species S            12.73369234        4.57774023        1.08368924
  |   65: Species W             9.52846736        6.42094316        2.64720175
  |   66: Species S            11.14958146        7.34527243        4.20228209
  |   67: Species S            11.12598640        7.32644297        1.06531726
  |   68: Species W             7.92332471        9.16456331        2.63119966
  |   69: Species S             9.53139652       10.09278462        4.19286337
  |   70: Species S             9.52185185       10.08728998        1.05833486
  |   71: Species W             6.34989579       11.92613560        2.64721472
  |   72: Species S             7.96094933       12.86811760        4.20228206
  |   73: Species S             7.93286303       12.85714001        1.06538960

  Lattice parameters for 3D lattice (in Angstroms) :    15.900000   15.900000  100.000000
  Angle(s) between unit vectors (in degrees)       :    90.000000   90.000000  120.000000


  Quantities derived from the lattice vectors:
  | Reciprocal lattice vector 1:  0.395169  0.228151  0.000000
  | Reciprocal lattice vector 2: -0.000000  0.456302  0.000000
  | Reciprocal lattice vector 3:  0.000000  0.000000  0.062832
  | Unit cell volume                               :   0.218940E+05  A^3

  Fractional coordinates:
                         L1                L2                L3
       atom_frac         0.03529636        0.06863441        0.02624620  W
       atom_frac         0.17498936        0.14221075        0.04123871  S
       atom_frac         0.16609464        0.13413648        0.00986970  S
       atom_frac         0.03809033        0.26904810        0.02636688  W
       atom_frac         0.18547969        0.34273295        0.04110823  S
       atom_frac         0.16706788        0.33352656        0.00964888  S
       atom_frac         0.03530285        0.46666831        0.02624558  W
       atom_frac         0.17499522        0.53278117        0.04123851  S
       atom_frac         0.16610389        0.53196067        0.00986886  S
       atom_frac         0.03311725        0.66621217        0.02621118  W
       atom_frac         0.16816335        0.73227480        0.04165897  S
       atom_frac         0.16588539        0.73317841        0.01031300  S
       atom_frac         0.03309945        0.86688989        0.02621145  W
       atom_frac         0.16816154        0.93588998        0.04165774  S
       atom_frac         0.16588292        0.93270995        0.01031481  S
       atom_frac         0.23455952        0.06911737        0.02566269  W
       atom_frac         0.36615790        0.13905583        0.04137888  S
       atom_frac         0.36849353        0.13391533        0.00993200  S
       atom_frac         0.24166108        0.27199611        0.02477946  W
       atom_frac         0.36871666        0.33383604        0.00843970  S
       atom_frac         0.24163689        0.46964610        0.02477873  W
       atom_frac         0.36870583        0.53487622        0.00843870  S
       atom_frac         0.23454712        0.66544397        0.02566208  W
       atom_frac         0.36616319        0.72709981        0.04137645  S
       atom_frac         0.36850156        0.73458048        0.00993329  S
       atom_frac         0.23356753        0.86678121        0.02607337  W
       atom_frac         0.36610872        0.93305684        0.04190177  S
       atom_frac         0.36755408        0.93378027        0.01046183  S
       atom_frac         0.43328729        0.06743485        0.02619786  W
       atom_frac         0.56523339        0.13357597        0.04218822  S
       atom_frac         0.56786291        0.13352894        0.01074380  S
       atom_frac         0.42999319        0.26904914        0.02510788  W
       atom_frac         0.55860806        0.33311694        0.04154629  S
       atom_frac         0.56607669        0.33174399        0.01010534  S
       atom_frac         0.42756736        0.46379695        0.02407710  W
       atom_frac         0.54921610        0.52460688        0.04103040  S
       atom_frac         0.56453941        0.53227000        0.00947337  S
       atom_frac         0.43000073        0.66092545        0.02510734  W
       atom_frac         0.55860275        0.72549966        0.04154643  S
       atom_frac         0.56608180        0.73434529        0.01010422  S
       atom_frac         0.43328486        0.86586576        0.02619770  W
       atom_frac         0.56523186        0.93165197        0.04218757  S
       atom_frac         0.56786356        0.93432787        0.01074410  S
       atom_frac         0.63352274        0.06675926        0.02663055  W
       atom_frac         0.76723794        0.13362055        0.04245704  S
       atom_frac         0.76762890        0.13381532        0.01102590  S
       atom_frac         0.63203699        0.26669774        0.02641442  W
       atom_frac         0.76553795        0.33370450        0.04228801  S
       atom_frac         0.76683349        0.33263266        0.01087818  S
       atom_frac         0.62788050        0.46466861        0.02585149  W
       atom_frac         0.76140899        0.53145514        0.04189364  S
       atom_frac         0.76534513        0.53220512        0.01060153  S
       atom_frac         0.62786516        0.66321241        0.02585155  W
       atom_frac         0.76140246        0.72994921        0.04189371  S
       atom_frac         0.76533963        0.73313460        0.01060161  S
       atom_frac         0.63205945        0.86534668        0.02641437  W
       atom_frac         0.76554432        0.93183781        0.04228847  S
       atom_frac         0.76684137        0.93420514        0.01087798  S
       atom_frac         0.83440530        0.06722853        0.02671830  W
       atom_frac         0.97091004        0.13591718        0.04221248  S
       atom_frac         0.96708581        0.13463464        0.01083718  S
       atom_frac         0.83440999        0.26718475        0.02671819  W
       atom_frac         0.97091137        0.33499294        0.04221240  S
       atom_frac         0.96708502        0.33244774        0.01083689  S
       atom_frac         0.83242771        0.46630607        0.02647202  W
       atom_frac         0.96794821        0.53343334        0.04202282  S
       atom_frac         0.96578052        0.53206589        0.01065317  S
       atom_frac         0.83109986        0.66555511        0.02631200  W
       atom_frac         0.96594141        0.73296502        0.04192863  S
       atom_frac         0.96514160        0.73256599        0.01058335  S
       atom_frac         0.83241845        0.86610787        0.02647215  W
       atom_frac         0.96794720        0.93451713        0.04202282  S
       atom_frac         0.96578216        0.93371991        0.01065390  S

 
  Finished reading input file 'control.in'.
 

------------------------------------------------------------
          Reading geometry description geometry.in.
------------------------------------------------------------
 
  Consistency checks for stacksize environment parameter are next.
 
  | Maximum stacksize for task 0: unlimited
  | Maximum stacksize for task 1: unlimited
  | Maximum stacksize for task 2: unlimited
  | Maximum stacksize for task 3: unlimited
  | Maximum stacksize for task 4: unlimited
  | Maximum stacksize for task 5: unlimited
  | Maximum stacksize for task 6: unlimited
  | Maximum stacksize for task 7: unlimited
  | Maximum stacksize for task 8: unlimited
  | Maximum stacksize for task 9: unlimited
  | Maximum stacksize for task 10: unlimited
  | Maximum stacksize for task 11: unlimited
  | Maximum stacksize for task 12: unlimited
  | Maximum stacksize for task 13: unlimited
  | Maximum stacksize for task 14: unlimited
  | Maximum stacksize for task 15: unlimited
  | Maximum stacksize for task 16: unlimited
  | Maximum stacksize for task 17: unlimited
  | Maximum stacksize for task 18: unlimited
  | Maximum stacksize for task 19: unlimited
  | Maximum stacksize for task 20: unlimited
  | Maximum stacksize for task 21: unlimited
  | Maximum stacksize for task 22: unlimited
  | Maximum stacksize for task 23: unlimited
  | Maximum stacksize for task 24: unlimited
  | Maximum stacksize for task 25: unlimited
  | Maximum stacksize for task 26: unlimited
  | Maximum stacksize for task 27: unlimited
  | Maximum stacksize for task 28: unlimited
  | Maximum stacksize for task 29: unlimited
  | Maximum stacksize for task 30: unlimited
  | Maximum stacksize for task 31: unlimited
  | Maximum stacksize for task 32: unlimited
  | Maximum stacksize for task 33: unlimited
  | Maximum stacksize for task 34: unlimited
  | Maximum stacksize for task 35: unlimited
  | Maximum stacksize for task 36: unlimited
  | Maximum stacksize for task 37: unlimited
  | Maximum stacksize for task 38: unlimited
  | Maximum stacksize for task 39: unlimited
  | Maximum stacksize for task 40: unlimited
  | Maximum stacksize for task 41: unlimited
  | Maximum stacksize for task 42: unlimited
  | Maximum stacksize for task 43: unlimited
  | Maximum stacksize for task 44: unlimited
  | Maximum stacksize for task 45: unlimited
  | Maximum stacksize for task 46: unlimited
  | Maximum stacksize for task 47: unlimited
  | Maximum stacksize for task 48: unlimited
  | Maximum stacksize for task 49: unlimited
  | Maximum stacksize for task 50: unlimited
  | Maximum stacksize for task 51: unlimited
  | Maximum stacksize for task 52: unlimited
  | Maximum stacksize for task 53: unlimited
  | Maximum stacksize for task 54: unlimited
  | Maximum stacksize for task 55: unlimited
  | Maximum stacksize for task 56: unlimited
  | Maximum stacksize for task 57: unlimited
  | Maximum stacksize for task 58: unlimited
  | Maximum stacksize for task 59: unlimited
  | Maximum stacksize for task 60: unlimited
  | Maximum stacksize for task 61: unlimited
  | Maximum stacksize for task 62: unlimited
  | Maximum stacksize for task 63: unlimited
  | Maximum stacksize for task 64: unlimited
  | Maximum stacksize for task 65: unlimited
  | Maximum stacksize for task 66: unlimited
  | Maximum stacksize for task 67: unlimited
  | Maximum stacksize for task 68: unlimited
  | Maximum stacksize for task 69: unlimited
  | Maximum stacksize for task 70: unlimited
  | Maximum stacksize for task 71: unlimited
  | Maximum stacksize for task 72: unlimited
  | Maximum stacksize for task 73: unlimited
  | Maximum stacksize for task 74: unlimited
  | Maximum stacksize for task 75: unlimited
  | Maximum stacksize for task 76: unlimited
  | Maximum stacksize for task 77: unlimited
  | Maximum stacksize for task 78: unlimited
  | Maximum stacksize for task 79: unlimited
  | Maximum stacksize for task 80: unlimited
  | Maximum stacksize for task 81: unlimited
  | Maximum stacksize for task 82: unlimited
  | Maximum stacksize for task 83: unlimited
  | Maximum stacksize for task 84: unlimited
  | Maximum stacksize for task 85: unlimited
  | Maximum stacksize for task 86: unlimited
  | Maximum stacksize for task 87: unlimited
  | Maximum stacksize for task 88: unlimited
  | Maximum stacksize for task 89: unlimited
  | Maximum stacksize for task 90: unlimited
  | Maximum stacksize for task 91: unlimited
  | Maximum stacksize for task 92: unlimited
  | Maximum stacksize for task 93: unlimited
  | Maximum stacksize for task 94: unlimited
  | Maximum stacksize for task 95: unlimited
  | Maximum stacksize for task 96: unlimited
  | Maximum stacksize for task 97: unlimited
  | Maximum stacksize for task 98: unlimited
  | Maximum stacksize for task 99: unlimited
  | Maximum stacksize for task 100: unlimited
  | Maximum stacksize for task 101: unlimited
  | Maximum stacksize for task 102: unlimited
  | Maximum stacksize for task 103: unlimited
  | Maximum stacksize for task 104: unlimited
  | Maximum stacksize for task 105: unlimited
  | Maximum stacksize for task 106: unlimited
  | Maximum stacksize for task 107: unlimited
  | Maximum stacksize for task 108: unlimited
  | Maximum stacksize for task 109: unlimited
  | Maximum stacksize for task 110: unlimited
  | Maximum stacksize for task 111: unlimited
  | Maximum stacksize for task 112: unlimited
  | Maximum stacksize for task 113: unlimited
  | Maximum stacksize for task 114: unlimited
  | Maximum stacksize for task 115: unlimited
  | Maximum stacksize for task 116: unlimited
  | Maximum stacksize for task 117: unlimited
  | Maximum stacksize for task 118: unlimited
  | Maximum stacksize for task 119: unlimited
  | Maximum stacksize for task 120: unlimited
  | Maximum stacksize for task 121: unlimited
  | Maximum stacksize for task 122: unlimited
  | Maximum stacksize for task 123: unlimited
  | Maximum stacksize for task 124: unlimited
  | Maximum stacksize for task 125: unlimited
  | Maximum stacksize for task 126: unlimited
  | Maximum stacksize for task 127: unlimited
  | Maximum stacksize for task 128: unlimited
  | Maximum stacksize for task 129: unlimited
  | Maximum stacksize for task 130: unlimited
  | Maximum stacksize for task 131: unlimited
  | Maximum stacksize for task 132: unlimited
  | Maximum stacksize for task 133: unlimited
  | Maximum stacksize for task 134: unlimited
  | Maximum stacksize for task 135: unlimited
  | Maximum stacksize for task 136: unlimited
  | Maximum stacksize for task 137: unlimited
  | Maximum stacksize for task 138: unlimited
  | Maximum stacksize for task 139: unlimited
  | Maximum stacksize for task 140: unlimited
  | Maximum stacksize for task 141: unlimited
  | Maximum stacksize for task 142: unlimited
  | Maximum stacksize for task 143: unlimited
  | Maximum stacksize for task 144: unlimited
  | Maximum stacksize for task 145: unlimited
  | Maximum stacksize for task 146: unlimited
  | Maximum stacksize for task 147: unlimited
  | Maximum stacksize for task 148: unlimited
  | Maximum stacksize for task 149: unlimited
  | Maximum stacksize for task 150: unlimited
  | Maximum stacksize for task 151: unlimited
  | Maximum stacksize for task 152: unlimited
  | Maximum stacksize for task 153: unlimited
  | Maximum stacksize for task 154: unlimited
  | Maximum stacksize for task 155: unlimited
  | Maximum stacksize for task 156: unlimited
  | Maximum stacksize for task 157: unlimited
  | Maximum stacksize for task 158: unlimited
  | Maximum stacksize for task 159: unlimited
  | Current stacksize for task 0: unlimited
  | Current stacksize for task 1: unlimited
  | Current stacksize for task 2: unlimited
  | Current stacksize for task 3: unlimited
  | Current stacksize for task 4: unlimited
  | Current stacksize for task 5: unlimited
  | Current stacksize for task 6: unlimited
  | Current stacksize for task 7: unlimited
  | Current stacksize for task 8: unlimited
  | Current stacksize for task 9: unlimited
  | Current stacksize for task 10: unlimited
  | Current stacksize for task 11: unlimited
  | Current stacksize for task 12: unlimited
  | Current stacksize for task 13: unlimited
  | Current stacksize for task 14: unlimited
  | Current stacksize for task 15: unlimited
  | Current stacksize for task 16: unlimited
  | Current stacksize for task 17: unlimited
  | Current stacksize for task 18: unlimited
  | Current stacksize for task 19: unlimited
  | Current stacksize for task 20: unlimited
  | Current stacksize for task 21: unlimited
  | Current stacksize for task 22: unlimited
  | Current stacksize for task 23: unlimited
  | Current stacksize for task 24: unlimited
  | Current stacksize for task 25: unlimited
  | Current stacksize for task 26: unlimited
  | Current stacksize for task 27: unlimited
  | Current stacksize for task 28: unlimited
  | Current stacksize for task 29: unlimited
  | Current stacksize for task 30: unlimited
  | Current stacksize for task 31: unlimited
  | Current stacksize for task 32: unlimited
  | Current stacksize for task 33: unlimited
  | Current stacksize for task 34: unlimited
  | Current stacksize for task 35: unlimited
  | Current stacksize for task 36: unlimited
  | Current stacksize for task 37: unlimited
  | Current stacksize for task 38: unlimited
  | Current stacksize for task 39: unlimited
  | Current stacksize for task 40: unlimited
  | Current stacksize for task 41: unlimited
  | Current stacksize for task 42: unlimited
  | Current stacksize for task 43: unlimited
  | Current stacksize for task 44: unlimited
  | Current stacksize for task 45: unlimited
  | Current stacksize for task 46: unlimited
  | Current stacksize for task 47: unlimited
  | Current stacksize for task 48: unlimited
  | Current stacksize for task 49: unlimited
  | Current stacksize for task 50: unlimited
  | Current stacksize for task 51: unlimited
  | Current stacksize for task 52: unlimited
  | Current stacksize for task 53: unlimited
  | Current stacksize for task 54: unlimited
  | Current stacksize for task 55: unlimited
  | Current stacksize for task 56: unlimited
  | Current stacksize for task 57: unlimited
  | Current stacksize for task 58: unlimited
  | Current stacksize for task 59: unlimited
  | Current stacksize for task 60: unlimited
  | Current stacksize for task 61: unlimited
  | Current stacksize for task 62: unlimited
  | Current stacksize for task 63: unlimited
  | Current stacksize for task 64: unlimited
  | Current stacksize for task 65: unlimited
  | Current stacksize for task 66: unlimited
  | Current stacksize for task 67: unlimited
  | Current stacksize for task 68: unlimited
  | Current stacksize for task 69: unlimited
  | Current stacksize for task 70: unlimited
  | Current stacksize for task 71: unlimited
  | Current stacksize for task 72: unlimited
  | Current stacksize for task 73: unlimited
  | Current stacksize for task 74: unlimited
  | Current stacksize for task 75: unlimited
  | Current stacksize for task 76: unlimited
  | Current stacksize for task 77: unlimited
  | Current stacksize for task 78: unlimited
  | Current stacksize for task 79: unlimited
  | Current stacksize for task 80: unlimited
  | Current stacksize for task 81: unlimited
  | Current stacksize for task 82: unlimited
  | Current stacksize for task 83: unlimited
  | Current stacksize for task 84: unlimited
  | Current stacksize for task 85: unlimited
  | Current stacksize for task 86: unlimited
  | Current stacksize for task 87: unlimited
  | Current stacksize for task 88: unlimited
  | Current stacksize for task 89: unlimited
  | Current stacksize for task 90: unlimited
  | Current stacksize for task 91: unlimited
  | Current stacksize for task 92: unlimited
  | Current stacksize for task 93: unlimited
  | Current stacksize for task 94: unlimited
  | Current stacksize for task 95: unlimited
  | Current stacksize for task 96: unlimited
  | Current stacksize for task 97: unlimited
  | Current stacksize for task 98: unlimited
  | Current stacksize for task 99: unlimited
  | Current stacksize for task 100: unlimited
  | Current stacksize for task 101: unlimited
  | Current stacksize for task 102: unlimited
  | Current stacksize for task 103: unlimited
  | Current stacksize for task 104: unlimited
  | Current stacksize for task 105: unlimited
  | Current stacksize for task 106: unlimited
  | Current stacksize for task 107: unlimited
  | Current stacksize for task 108: unlimited
  | Current stacksize for task 109: unlimited
  | Current stacksize for task 110: unlimited
  | Current stacksize for task 111: unlimited
  | Current stacksize for task 112: unlimited
  | Current stacksize for task 113: unlimited
  | Current stacksize for task 114: unlimited
  | Current stacksize for task 115: unlimited
  | Current stacksize for task 116: unlimited
  | Current stacksize for task 117: unlimited
  | Current stacksize for task 118: unlimited
  | Current stacksize for task 119: unlimited
  | Current stacksize for task 120: unlimited
  | Current stacksize for task 121: unlimited
  | Current stacksize for task 122: unlimited
  | Current stacksize for task 123: unlimited
  | Current stacksize for task 124: unlimited
  | Current stacksize for task 125: unlimited
  | Current stacksize for task 126: unlimited
  | Current stacksize for task 127: unlimited
  | Current stacksize for task 128: unlimited
  | Current stacksize for task 129: unlimited
  | Current stacksize for task 130: unlimited
  | Current stacksize for task 131: unlimited
  | Current stacksize for task 132: unlimited
  | Current stacksize for task 133: unlimited
  | Current stacksize for task 134: unlimited
  | Current stacksize for task 135: unlimited
  | Current stacksize for task 136: unlimited
  | Current stacksize for task 137: unlimited
  | Current stacksize for task 138: unlimited
  | Current stacksize for task 139: unlimited
  | Current stacksize for task 140: unlimited
  | Current stacksize for task 141: unlimited
  | Current stacksize for task 142: unlimited
  | Current stacksize for task 143: unlimited
  | Current stacksize for task 144: unlimited
  | Current stacksize for task 145: unlimited
  | Current stacksize for task 146: unlimited
  | Current stacksize for task 147: unlimited
  | Current stacksize for task 148: unlimited
  | Current stacksize for task 149: unlimited
  | Current stacksize for task 150: unlimited
  | Current stacksize for task 151: unlimited
  | Current stacksize for task 152: unlimited
  | Current stacksize for task 153: unlimited
  | Current stacksize for task 154: unlimited
  | Current stacksize for task 155: unlimited
  | Current stacksize for task 156: unlimited
  | Current stacksize for task 157: unlimited
  | Current stacksize for task 158: unlimited
  | Current stacksize for task 159: unlimited
 
  Consistency checks for the contents of control.in are next.
 
  MPI_IN_PLACE appears to work with this MPI implementation.
  | Keeping use_mpi_in_place .true. (see manual).
  Target number of points in a grid batch is not set. Defaulting to  100
  Method for grid partitioning is not set. Defaulting to parallel hash+maxmin partitioning.
  Batch size limit is not set. Defaulting to    200
  By default, will store active basis functions for each batch.
  If in need of memory, prune_basis_once .false. can be used to disable this option.
  communication_type for Hartree potential was not specified.
  Defaulting to calc_hartree .
  Defaulting to Pulay charge density mixer.
  Pulay mixer: Number of relevant iterations not set.
  Defaulting to    8 iterations.
  Pulay mixer: Number of initial linear mixing iterations not set.
  Defaulting to    0 iterations.
  Work space size for distributed Hartree potential not set.
  Defaulting to   0.200000E+03 MB.
  Mixing parameter for charge density mixing has not been set.
  Using default: charge_mix_param =     0.0500.
  The mixing parameter will be adjusted in iteration number     2 of the first full s.c.f. cycle only.
  Algorithm-dependent basis array size parameters:
  | n_max_pulay                         :        8
  Maximum number of self-consistency iterations not provided.
  Presetting  1000 iterations.
  Presetting      1001 iterations before the initial mixing cycle
  is restarted anyway using the sc_init_iter criterion / keyword.
  Presetting a factor      1.000 between actual scf density residual
  and density convergence criterion sc_accuracy_rho below which sc_init_iter
  takes no effect.
 * No s.c.f. convergence criteria (sc_accuracy_*) were provided in control.in.
 * The run will proceed with a reasonable default guess, but please check whether.
 * the s.c.f. cycles seem to take too much or too little time.
  No maximum number of relaxation steps, defaulting to     1000
  Using explicit Hessian from geometry.in.
  No maximum energy tolerance for TRM/BFGS moves, defaulting to   0.100000E-02
  Maximum energy tolerance by which TRM/BFGS trajectory may increase over multiple steps:   0.300000E-02
  No harmonic length scale. Defaulting to   0.250000E-01 A.
  No trust radius initializer. Defaulting to   0.200000E+00 A.
 * Notice: The s.c.f. convergence criterion sc_accuracy_rho was not provided.
 * We used to stop in this case, and ask the user to provide reasonable
 * scf convergence criteria. However, this led some users to employ criteria
 * that led to extremely long run times, e.g., for simple relaxation.
 * We now preset a default value for sc_accuracy_rho if it is not set.
 * You may still wish to check if this setting is too tight or too loose for your needs.
 * Based on n_atoms, FHI-aims chose sc_accuracy_rho =  0.348807E-05 .
  Force calculation: scf convergence accuracy of forces not set.
  Defaulting to 'sc_accuracy_forces not_checked'.
  Handling of forces: Unphysical translation and rotation will be removed from forces.
  No accuracy limit for integral partition fn. given. Defaulting to  0.1000E-14.
  No threshold value for u(r) in integrations given. Defaulting to  0.1000E-05.
  No accuracy for occupation numbers given. Defaulting to  0.1000E-12.
  No threshold value for occupation numbers given. Defaulting to  0.0000E+00.
  No accuracy for fermi level given. Defaulting to  0.1000E-19.
  Maximum # of iterations to find E_F not set. Defaulting to  200.
  Preferred method for the eigenvalue solver ('KS_method') not specified in 'control.in'.
  Calling BLACS routine to test compilation state
  Since ScaLAPACK support is enabled, defaulting to ELPA (via ELSI).
  Will not use alltoall communication since running on < 1024 CPUs.
  Threshold for basis singularities not set.
  Default threshold for basis singularities:  0.1000E-04
  partition_type (choice of integration weights) for integrals was not specified.
  | Using a version of the partition function of Stratmann and coworkers ('stratmann_sparse').
  | At each grid point, the set of atoms used to build the partition table is smoothly restricted to
  | only those atoms whose free-atom density would be non-zero at that grid point.
  Partitioning for Hartree potential was not defined. Using partition_type for integrals.
  | Adjusted default value of keyword multip_moments_threshold to:       0.10000000E-11
  | This value may affect high angular momentum components of the Hartree potential in periodic systems.
  Angular momentum expansion for Kerker preconditioner not set explicitly.
  | Using default value of   0
  No explicit requirement for turning off preconditioner.
  | By default, it will be turned off when the charge convergence reaches
  | sc_accuracy_rho  =   0.348807E-05
  No special mixing parameter while Kerker preconditioner is on.
  Using default: charge_mix_param =     0.0500.
  No q(lm)/r^(l+1) cutoff set for long-range Hartree potential.
  | Using default value of  0.100000E-09 .
  | Verify using the multipole_threshold keyword.
  Defaulting to new monopole extrapolation.
  Density update method: automatic selection selected.
  Using density matrix based charge density update.
  Using density matrix based charge density update.
  Using packed matrix style: index .
  Geometry relaxation: A file "geometry.in.next_step" is written out by default after each step.
  | This file contains the geometry of the current relaxation step as well as
  | the current Hessian matrix needed to restart the relaxation algorithm.
  | If you do not want part or all of this information, use the keywords
  | "write_restart_geometry" or "hessian_to_restart_geometry" to switch the output off.
  Defaulting to use time-reversal symmetry for k-point grid.
  Charge integration errors on the 3D integration grid will be compensated
  by explicit normalization and distribution of residual charges.
  Use the "compensate_multipole_errors" flag to change this behaviour.
 
  Consistency checks for the contents of geometry.in are next.
 

  Range separation radius for Ewald summation (hartree_convergence_parameter):      5.00000000 bohr.
  Number of empty states per atom not set in control.in - providing a guess from actual geometry.
  | Total number of empty states used during s.c.f. cycle:      369
  If you use a very high smearing, use empty_states (per atom!) in control.in to increase this value.

  Structure-dependent array size parameters: 
  | Maximum number of distinct radial functions  :       57
  | Maximum number of basis functions            :     3497
  | Number of Kohn-Sham states (occupied + empty):     1678
------------------------------------------------------------

------------------------------------------------------------
          Preparing all fixed parts of the calculation.
------------------------------------------------------------
  Determining machine precision:
    2.225073858507201E-308
  Setting up grids for atomic and cluster calculations.

  Creating wave function, potential, and density for free atoms.

  Species: S

  List of occupied orbitals and eigenvalues:
    n    l              occ      energy [Ha]    energy [eV]
    1    0           2.0000       -88.680731     -2413.1255
    2    0           2.0000        -7.781719      -211.7513
    3    0           2.0000        -0.633662       -17.2428
    2    1           6.0000        -5.751976      -156.5192
    3    1           4.0000        -0.257086        -6.9957


  Species: Mo

  List of occupied orbitals and eigenvalues:
    n    l              occ      energy [Ha]    energy [eV]
    1    0           2.0000      -745.344654    -20281.8600
    2    0           2.0000      -103.288246     -2810.6162
    3    0           2.0000       -17.516687      -476.6533
    4    0           2.0000        -2.358559       -64.1796
    5    0           1.0000        -0.145159        -3.9500
    2    1           6.0000       -92.308627     -2511.8455
    3    1           6.0000       -13.936005      -379.2180
    4    1           6.0000        -1.408138       -38.3174
    3    2          10.0000        -8.119011      -220.9295
    4    2           5.0000        -0.132984        -3.6187


  Species: W

  List of occupied orbitals and eigenvalues:
    n    l              occ      energy [Ha]    energy [eV]
    1    0           2.0000     -2764.899999    -75236.7570
    2    0           2.0000      -447.822848    -12185.8797
    3    0           2.0000      -101.923634     -2773.4832
    4    0           2.0000       -20.945301      -569.9506
    5    0           2.0000        -2.899582       -78.9016
    6    0           2.0000        -0.207066        -5.6345
    2    1           6.0000      -391.021390    -10640.2334
    3    1           6.0000       -85.417793     -2324.3364
    4    1           6.0000       -15.562838      -423.4864
    5    1           6.0000        -1.582233       -43.0547
    3    2          10.0000       -66.517936     -1810.0451
    4    2          10.0000        -8.758436      -238.3292
    5    2           4.0000        -0.161873        -4.4048
    4    3          14.0000        -1.221948       -33.2509


  Species: Se

  List of occupied orbitals and eigenvalues:
    n    l              occ      energy [Ha]    energy [eV]
    1    0           2.0000      -466.337810    -12689.6975
    2    0           2.0000       -59.202598     -1610.9847
    3    0           2.0000        -7.847116      -213.5309
    4    0           2.0000        -0.634372       -17.2621
    2    1           6.0000       -52.061107     -1416.6548
    3    1           6.0000        -5.620941      -152.9536
    4    1           4.0000        -0.238469        -6.4891
    3    2          10.0000        -1.951949       -53.1152


  Adding cutoff potential to free-atom effective potential.
  Creating fixed part of basis set: Ionic, confined, hydrogenic.
 
  S                    ion:

  List of free ionic orbitals and eigenvalues:
    n    l      energy [Ha]    energy [eV]
    1    0       -89.703778     -2440.9640
    2    0        -8.775428      -238.7916
    3    0        -1.470343       -40.0101
    2    1        -6.747660      -183.6132
    3    1        -1.048627       -28.5346


  List of ionic basis orbitals and eigenvalues:
    n    l      energy [Ha]    energy [eV]    outer radius [A]
    3    2        -0.495605       -13.4861       5.386362
    3    0        -1.470336       -40.0099       3.967934

 
  S                    hydrogenic:
 
  List of hydrogenic basis orbitals: 
    n    l      effective z      eigenvalue [eV]  inner max. [A]     outer max. [A]     outer radius [A]   
    2    1         1.800000       -11.0118           1.168531           1.168531           5.452614
    4    3         7.000000       -41.6672           1.212182           1.212182           5.066981
    4    2         6.200000       -32.6848           0.582121           1.814567           5.386362
    5    4        10.800000       -63.4785           1.227092           1.227092           4.766538
 
 
  Mo                   ion:

  List of free ionic orbitals and eigenvalues:
    n    l      energy [Ha]    energy [eV]
    1    0      -746.048685    -20301.0176
    2    0      -103.980912     -2829.4646
    3    0       -18.206601      -495.4268
    4    0        -3.040545       -82.7374
    2    1       -93.001013     -2530.6863
    3    1       -14.625827      -397.9890
    4    1        -2.084855       -56.7318
    3    2        -8.808854      -239.7011
    4    2        -0.765435       -20.8285


  List of ionic basis orbitals and eigenvalues:
    n    l      energy [Ha]    energy [eV]    outer radius [A]
    5    1        -0.465587       -12.6693       5.456393
    5    0        -0.650331       -17.6964       5.390095

 
  Mo                   hydrogenic:
 
  List of hydrogenic basis orbitals: 
    n    l      effective z      eigenvalue [eV]  inner max. [A]     outer max. [A]     outer radius [A]   
    4    3         8.400000       -60.0010           1.009788           1.009788           4.487018
    3    2         2.800000       -11.8048           1.687401           1.687401           5.456393
    5    4        12.000000       -78.3687           1.100005           1.100005           4.432498
 
 
  W                    ion:

  List of free ionic orbitals and eigenvalues:
    n    l      energy [Ha]    energy [eV]
    1    0     -2765.664016    -75257.5469
    2    0      -448.543169    -12205.4806
    3    0      -102.635476     -2792.8534
    4    0       -21.655379      -589.2728
    5    0        -3.604872       -98.0936
    6    0        -0.752243       -20.4696
    2    1      -391.740682    -10659.8063
    3    1       -86.129333     -2343.6984
    4    1       -16.272893      -442.8080
    5    1        -2.280103       -62.0448
    3    2       -67.229405     -1829.4052
    4    2        -9.468448      -257.6496
    5    2        -0.806537       -21.9470
    4    3        -1.931058       -52.5468


  List of ionic basis orbitals and eigenvalues:
    n    l      energy [Ha]    energy [eV]    outer radius [A]
    6    1        -0.508246       -13.8301       5.434360
    6    0        -0.752227       -20.4691       5.368330

 
  W                    hydrogenic:
 
  List of hydrogenic basis orbitals: 
    n    l      effective z      eigenvalue [eV]  inner max. [A]     outer max. [A]     outer radius [A]   
    4    3         7.800000       -51.7355           1.082252           1.082252           4.692859
    4    2         5.800000       -28.5979           0.616741           1.946131           5.434360
    5    4        12.400000       -83.6803           1.069102           1.069102           4.307971
 
 
  Se                   ion:

  List of free ionic orbitals and eigenvalues:
    n    l      energy [Ha]    energy [eV]
[...]
   3246       0.00000                       8.156720           8.184725             0.000000
   3247       0.00000                       8.233331           8.271869             0.087144
   3248       0.00000                       8.233331           8.271869             0.000000
   3249       0.00000                       8.257866           8.297104             0.025236
   3250       0.00000                       8.257866           8.297104             0.000000
   3251       0.00000                       8.325690           8.351350             0.054245
   3252       0.00000                       8.325690           8.351350             0.000000
   3253       0.00000                       8.357757           8.420400             0.069051
   3254       0.00000                       8.357757           8.420400             0.000000
   3255       0.00000                       8.524605           8.555690             0.135290
   3256       0.00000                       8.524605           8.555690             0.000000
   3257       0.00000                       8.614946           8.653912             0.098222
   3258       0.00000                       8.614946           8.653912             0.000000
   3259       0.00000                       8.617356           8.660101             0.006189
   3260       0.00000                       8.617356           8.660101             0.000000
   3261       0.00000                       8.694607           8.725327             0.065227
   3262       0.00000                       8.694607           8.725327             0.000000
   3263       0.00000                       8.733894           8.790297             0.064970
   3264       0.00000                       8.733894           8.790297             0.000000
   3265       0.00000                       8.759167           8.823099             0.032802
   3266       0.00000                       8.759167           8.823099             0.000000
   3267       0.00000                       8.777167           8.842578             0.019479
   3268       0.00000                       8.777167           8.842578             0.000000
   3269       0.00000                       8.867179           8.918113             0.075535
   3270       0.00000                       8.867179           8.918113             0.000000
   3271       0.00000                       8.880452           8.947376             0.029263
   3272       0.00000                       8.880452           8.947376             0.000000
   3273       0.00000                       8.903695           8.973402             0.026026
   3274       0.00000                       8.903695           8.973402             0.000000
   3275       0.00000                       8.958830           9.010368             0.036965
   3276       0.00000                       8.958830           9.010368             0.000000
   3277       0.00000                       8.978732           9.032092             0.021725
   3278       0.00000                       8.978732           9.032092             0.000000
   3279       0.00000                       9.011875           9.053534             0.021442
   3280       0.00000                       9.011875           9.053534             0.000000
   3281       0.00000                       9.031400           9.068671             0.015138
   3282       0.00000                       9.031400           9.068671             0.000000
   3283       0.00000                       9.047363           9.076041             0.007370
   3284       0.00000                       9.047363           9.076041             0.000000
   3285       0.00000                       9.085429           9.105424             0.029383
   3286       0.00000                       9.085429           9.105424             0.000000
   3287       0.00000                       9.085782           9.114974             0.009550
   3288       0.00000                       9.085782           9.114974             0.000000
   3289       0.00000                       9.101990           9.131337             0.016363
   3290       0.00000                       9.101990           9.131337             0.000000
   3291       0.00000                       9.104892           9.149861             0.018524
   3292       0.00000                       9.104892           9.149861             0.000000
   3293       0.00000                       9.124950           9.163845             0.013984
   3294       0.00000                       9.124950           9.163845             0.000000
   3295       0.00000                       9.137243           9.177612             0.013767
   3296       0.00000                       9.137243           9.177612             0.000000
   3297       0.00000                       9.142954           9.179850             0.002238
   3298       0.00000                       9.142954           9.179850             0.000000
   3299       0.00000                       9.143605           9.203930             0.024080
   3300       0.00000                       9.143605           9.203930             0.000000
   3301       0.00000                       9.158784           9.215226             0.011296
   3302       0.00000                       9.158784           9.215226             0.000000
   3303       0.00000                       9.174340           9.232984             0.017758
   3304       0.00000                       9.174340           9.232984             0.000000
   3305       0.00000                       9.190252           9.237239             0.004255
   3306       0.00000                       9.190252           9.237239             0.000000
   3307       0.00000                       9.195461           9.262591             0.025352
   3308       0.00000                       9.195461           9.262591             0.000000
   3309       0.00000                       9.253149           9.306904             0.044313
   3310       0.00000                       9.253149           9.306904             0.000000
   3311       0.00000                       9.273816           9.327955             0.021051
   3312       0.00000                       9.273816           9.327955             0.000000
   3313       0.00000                       9.298315           9.379382             0.051427
   3314       0.00000                       9.298315           9.379382             0.000000
   3315       0.00000                       9.301213           9.395011             0.015629
   3316       0.00000                       9.301213           9.395011             0.000000
   3317       0.00000                       9.373499           9.528809             0.133798
   3318       0.00000                       9.373499           9.528809             0.000000
   3319       0.00000                       9.454620           9.557741             0.028932
   3320       0.00000                       9.454620           9.557741             0.000000
   3321       0.00000                       9.463529           9.593926             0.036185
   3322       0.00000                       9.463529           9.593926             0.000000
   3323       0.00000                       9.492381           9.643651             0.049725
   3324       0.00000                       9.492381           9.643651             0.000000
   3325       0.00000                       9.525410           9.683787             0.040136
   3326       0.00000                       9.525410           9.683787             0.000000
   3327       0.00000                       9.550423           9.701577             0.017790
   3328       0.00000                       9.550423           9.701577             0.000000
   3329       0.00000                       9.559726           9.733721             0.032144
   3330       0.00000                       9.559726           9.733721             0.000000
   3331       0.00000                       9.582678           9.758952             0.025231
   3332       0.00000                       9.582678           9.758952             0.000000
   3333       0.00000                       9.707238           9.826300             0.067348
   3334       0.00000                       9.707238           9.826300             0.000000
   3335       0.00000                       9.730169           9.854978             0.028678
   3336       0.00000                       9.730169           9.854978             0.000000
   3337       0.00000                       9.871377           9.959771             0.104793
   3338       0.00000                       9.871377           9.959771             0.000000
   3339       0.00000                      10.122024          10.169862             0.210091
   3340       0.00000                      10.122024          10.169862             0.000000
   3341       0.00000                      10.132795          10.206191             0.036329
   3342       0.00000                      10.132795          10.206191             0.000000
   3343       0.00000                      10.135900          10.232715             0.026524
   3344       0.00000                      10.135900          10.232715             0.000000
   3345       0.00000                      10.279305          10.325495             0.092780
   3346       0.00000                      10.279305          10.325495             0.000000
   3347       0.00000                      10.292997          10.350608             0.025114
   3348       0.00000                      10.292997          10.350608             0.000000
   3349       0.00000                      10.320470          10.367407             0.016799
   3350       0.00000                      10.320470          10.367407             0.000000
   3351       0.00000                      10.392037          10.444061             0.076654
   3352       0.00000                      10.392037          10.444061             0.000000
   3353       0.00000                      10.393155          10.454501             0.010440
   3354       0.00000                      10.393155          10.454501             0.000000
   3355       0.00000                      10.435434          10.504270             0.049769
   3356       0.00000                      10.435434          10.504270             0.000000

  What follows are estimated values for band gap, HOMO, LUMO, etc.
  | They are estimated on a discrete k-point grid and not necessarily exact.
  | For converged numbers, create a DOS and/or band structure plot on a denser k-grid.

  Highest occupied state (VBM) at     -5.62197829 eV (relative to internal zero)
  | Occupation number:      1.00000000
  | K-point:       6 at    0.250000    0.500000    0.000000 (in units of recip. lattice)

  Lowest unoccupied state (CBM) at    -4.65380938 eV (relative to internal zero)
  | Occupation number:      0.00000000
  | K-point:       7 at    0.500000    0.000000    0.000000 (in units of recip. lattice)

  ESTIMATED overall HOMO-LUMO gap:      0.96816890 eV between HOMO at k-point 6 and LUMO at k-point 7
  | This appears to be an indirect band gap.
  | Smallest direct gap :      0.97009139 eV for k_point 8 at    0.500000    0.250000    0.000000 (in units of recip. lattice)
  The gap value is above 0.2 eV. Unless you are using a very sparse k-point grid,
  this system is most likely an insulator or a semiconductor.

  Spin-orbit coupling                                     :  max(cpu_time)    wall_clock(cpu1)
  | Computing matrix elements for SOC operator            :         19.425              19.445
  | Constructing second-variational Hamiltonian           :          3.952               3.956
  | Diagonalizing second-variational Hamiltonian          :          4.248               4.253
  | Syncing data and calculating occupations              :          0.268               0.227
  | Writing out data, calculating band gaps, etc.         :          0.027               0.030
  | Total SOC time                                        :         27.898              27.929

  Partial memory accounting:
  | Current value for overall tracked memory usage:
  |   Minimum:      117.949 MB (on task 111)
  |   Maximum:      119.654 MB (on task   0)
  |   Average:      119.038 MB
  | Peak value for overall tracked memory usage:
  |   Minimum:      306.593 MB (on task 111 after allocating temp_cmplx_eienvec)
  |   Maximum:      309.970 MB (on task   0 after allocating temp_cmplx_eienvec)
  |   Average:      308.582 MB
  | Largest tracked array allocation so far:
  |   Minimum:      143.291 MB (soc_matrix on task   0)
  |   Maximum:      143.291 MB (soc_matrix on task   0)
  |   Average:      143.291 MB
  Note:  These values currently only include a subset of arrays which are explicitly tracked.
  The "true" memory usage will be greater.
 ------------------------------------------------------------

------------------------------------------------------------------------------
  Final output of selected total energy values:

  The following output summarizes some interesting total energy values
  at the end of a run (AFTER all relaxation, molecular dynamics, etc.).

  | Total energy of the DFT / Hartree-Fock s.c.f. calculation      :      -11839695.505025350 eV
  | Final zero-broadening corrected energy (caution - metals only) :      -11839695.505025350 eV
  | Total energy after non-SC SOC correction (DO NOT USE)          :      -11839725.089554718 eV
  | For reference only, the value of 1 Hartree used in FHI-aims is :             27.211384500 eV
  | For reference only, the overall average (free atom contribution
  | + realspace contribution) of the electrostatic potential after
  | s.c.f. convergence is                                          :             -1.200806199 eV

  Before relying on these values, please be sure to understand exactly which
  total energy value is referred to by a given number. Different objects may
  all carry the same name 'total energy'. Definitions:

  Total energy of the DFT / Hartree-Fock s.c.f. calculation:
  | Note that this energy does not include ANY quantities calculated after the
  | s.c.f. cycle, in particular not ANY RPA, MP2, etc. many-body perturbation terms.

  Final zero-broadening corrected energy:
  | For metallic systems only, a broadening of the occupation numbers at the Fermi
  | level can be extrapolated back to zero broadening by an electron-gas inspired
  | formula. For all systems that are not real metals, this value can be
  | meaningless and should be avoided.

------------------------------------------------------------------------------
  Methods described in the following list of references were used in this FHI-aims run.
  If you publish the results, please make sure to cite these reference if they apply.
  FHI-aims is an academic code, and for our developers (often, Ph.D. students
  and postdocs), scientific credit in the community is essential.
  Thank you for helping us!

  For any use of FHI-aims, please cite:

    Volker Blum, Ralf Gehrke, Felix Hanke, Paula Havu, Ville Havu,
    Xinguo Ren, Karsten Reuter, and Matthias Scheffler
    'Ab initio molecular simulations with numeric atom-centered orbitals'
    Computer Physics Communications 180, 2175-2196 (2009)
    http://dx.doi.org/10.1016/j.cpc.2009.06.022


  The provided symmetry information was generated with SPGlib:

    Atsushi Togo, Yusuke Seto, Dimitar Pashov
    SPGlib 1.7.3 obtained from http://spglib.sourceforge.net
    Copyright (C) 2008 Atsushi Togo


  For second-variational spin-orbit coupling used in your run, please cite:

    William P. Huhn and Volker Blum,
    'One-hundred-three compound band-structure benchmark of post-self-consistent'
    'spin-orbit coupling treatments in density functional theory'
    Phys. Rev. Materials 1, 033803 (2017).


  The ELSI infrastructure was used in your run to solve the Kohn-Sham electronic structure.
  Please check out http://elsi-interchange.org to learn more.
  If scalability is important for your project, please acknowledge ELSI by citing:

    V. W-z. Yu, F. Corsetti, A. Garcia, W. P. Huhn, M. Jacquelin, W. Jia,
    B. Lange, L. Lin, J. Lu, W. Mi, A. Seifitokaldani, A. Vazquez-Mayagoitia,
    C. Yang, H. Yang, and V. Blum
    'ELSI: A unified software interface for Kohn-Sham electronic structure solvers'
    Computer Physics Communications 222, 267-285 (2018).
    http://dx.doi.org/10.1016/j.cpc.2017.09.007


  For the real-space grid partitioning and parallelization used in this calculation, please cite:

    Ville Havu, Volker Blum, Paula Havu, and Matthias Scheffler,
    'Efficient O(N) integration for all-electron electronic structure calculation'
    'using numerically tabulated basis functions'
    Journal of Computational Physics 228, 8367-8379 (2009).
    http://dx.doi.org/10.1016/j.jcp.2009.08.008

  Of course, there are many other important community references, e.g., those cited in the
  above references. Our list is limited to references that describe implementations in the
  FHI-aims code. The reason is purely practical (length of this list) - please credit others as well.

------------------------------------------------------------
          Leaving FHI-aims.
          Date     :  20210721, Time     :  183028.815

          Computational steps:
          | Number of self-consistency cycles          :           64
          | Number of SCF (re)initializations          :            5
          | Number of relaxation steps                 :            4

          Detailed time accounting                     :  max(cpu_time)    wall_clock(cpu1)
          | Total time                                 :     1181.091 s        1183.054 s
          | Preparation time                           :        1.011 s           1.036 s
          | Boundary condition initalization           :        5.789 s           5.790 s
          | Grid partitioning                          :        6.723 s           6.730 s
          | Preloading free-atom quantities on grid    :        2.928 s           2.942 s
          | Free-atom superposition energy             :        0.333 s           0.336 s
          | Total time for integrations                :      180.500 s         180.554 s
          | Total time for solution of K.-S. equations :      253.041 s         253.221 s
          | Total time for EV reorthonormalization     :        3.555 s           3.485 s
          | Total time for density & force components  :      540.245 s         540.608 s
          | Total time for mixing & preconditioning    :       21.672 s          21.677 s
          | Total time for Hartree multipole update    :        0.808 s           0.812 s
          | Total time for Hartree multipole sum       :      126.465 s         126.528 s
          | Total time for total energy evaluation     :        0.096 s           0.075 s
          | Total time for scaled ZORA corrections     :        0.000 s           0.000 s
          | Total time for perturbative SOC            :       27.898 s          27.929 s

          Partial memory accounting:
          | Residual value for overall tracked memory usage across tasks:     0.000000 MB (should be 0.000000 MB)
          | Peak values for overall tracked memory usage:
          |   Minimum:      306.593 MB (on task 111 after allocating temp_cmplx_eienvec)
          |   Maximum:      309.970 MB (on task   0 after allocating temp_cmplx_eienvec)
          |   Average:      308.582 MB
          | Largest tracked array allocation:
          |   Minimum:      143.291 MB (soc_matrix on task   0)
          |   Maximum:      143.291 MB (soc_matrix on task   0)
          |   Average:      143.291 MB
          Note:  These values currently only include a subset of arrays which are explicitly tracked.
          The "true" memory usage will be greater.

          Have a nice day.
------------------------------------------------------------
