------------------------------------------------------------
          Invoking FHI-aims ...

          When using FHI-aims, please cite the following reference:

            Volker Blum, Ralf Gehrke, Felix Hanke, Paula Havu,
            Ville Havu, Xinguo Ren, Karsten Reuter, and Matthias Scheffler,
            'Ab Initio Molecular Simulations with Numeric Atom-Centered Orbitals',
            Computer Physics Communications 180, 2175-2196 (2009)

          In addition, many other developments in FHI-aims are likely important for
          your particular application. A partial list of references is given at the end of
          this file. Thank you for giving credit to the authors of these developments.

          For any questions about FHI-aims, please visit our slack channel at

            https://fhi-aims.slack.com

          and our main development and support site at

            https://aims-git.rz-berlin.mpg.de .

          The latter site, in particular, has a wiki to collect information, as well
          as an issue tracker to log discussions, suggest improvements, and report issues
          or bugs. https://aims-git.rz-berlin.mpg.de is also the main development site
          of the project and all new and updated code versions can be obtained there.
          Please send an email to aims-coordinators@fhi-berlin.mpg.de and we will add
          you to these sites. They are for you and everyone is welcome there.

------------------------------------------------------------



  Date     :  20220119, Time     :  120413.257
  Time zero on CPU 1             :   0.248358000000000E+00  s.
  Internal wall clock time zero  :           411825853.257  s.

  FHI-aims created a unique identifier for this run for later identification
  aims_uuid : 4E105A33-815D-4295-AA5B-76A4DA9746FA

  Build configuration of the current instance of FHI-aims
  -------------------------------------------------------
  FHI-aims version      : 211206
  Commit number         : 89e815567
  CMake host system     : Linux-5.3.18-24.86-default
  CMake version         : 3.22.0
  Fortran compiler      : /mpcdf/soft/SLE_15/packages/x86_64/intel_parallel_studio/2020.2/compilers_and_libraries_2020.2.254/linux/mpi/intel64/bin/mpiifort (Intel) version 19.1.2.20200623
  Fortran compiler flags: -O3 -ip -fp-model precise
  C compiler            : /mpcdf/soft/SLE_15/packages/x86_64/intel/19.1.2/bin/icc (Intel) version 19.1.2.20200623
  C compiler flags      : -O3 -ip -fp-model precise
  C++ compiler          : /mpcdf/soft/SLE_15/packages/x86_64/intel/19.1.2/bin/icpc (Intel) version 19.1.2.20200623
  C++ compiler flags    : -O3 -ip -fp-model precise
  Using MPI
  Using ScaLAPACK
  Using LibXC
  Using i-PI
  Using RLSY
  Linking against: /mpcdf/soft/SLE_15/packages/x86_64/intel_oneapi/2021.2/mkl/latest/lib/intel64/libmkl_intel_lp64.so
                   /mpcdf/soft/SLE_15/packages/x86_64/intel_oneapi/2021.2/mkl/latest/lib/intel64/libmkl_sequential.so
                   /mpcdf/soft/SLE_15/packages/x86_64/intel_oneapi/2021.2/mkl/latest/lib/intel64/libmkl_core.so
                   /mpcdf/soft/SLE_15/packages/x86_64/intel_oneapi/2021.2/mkl/latest/lib/intel64/libmkl_blacs_intelmpi_lp64.so
                   /mpcdf/soft/SLE_15/packages/x86_64/intel_oneapi/2021.2/mkl/latest/lib/intel64/libmkl_scalapack_lp64.so

  Using      288 parallel tasks.
  Task        0 on host ravg1025 reporting.
  Task        1 on host ravg1025 reporting.
  Task        2 on host ravg1025 reporting.
  Task        3 on host ravg1025 reporting.
  Task        4 on host ravg1025 reporting.
  Task        5 on host ravg1025 reporting.
  Task        6 on host ravg1025 reporting.
  Task        7 on host ravg1025 reporting.
  Task        8 on host ravg1025 reporting.
  Task        9 on host ravg1025 reporting.
  Task       10 on host ravg1025 reporting.
  Task       11 on host ravg1025 reporting.
  Task       12 on host ravg1025 reporting.
  Task       13 on host ravg1025 reporting.
  Task       14 on host ravg1025 reporting.
  Task       15 on host ravg1025 reporting.
  Task       16 on host ravg1025 reporting.
  Task       17 on host ravg1025 reporting.
  Task       18 on host ravg1025 reporting.
  Task       19 on host ravg1025 reporting.
  Task       20 on host ravg1025 reporting.
  Task       21 on host ravg1025 reporting.
  Task       22 on host ravg1025 reporting.
  Task       23 on host ravg1025 reporting.
  Task       24 on host ravg1025 reporting.
  Task       25 on host ravg1025 reporting.
  Task       26 on host ravg1025 reporting.
  Task       27 on host ravg1025 reporting.
  Task       28 on host ravg1025 reporting.
  Task       29 on host ravg1025 reporting.
  Task       30 on host ravg1025 reporting.
  Task       31 on host ravg1025 reporting.
  Task       32 on host ravg1025 reporting.
  Task       33 on host ravg1025 reporting.
  Task       34 on host ravg1025 reporting.
  Task       35 on host ravg1025 reporting.
  Task       36 on host ravg1025 reporting.
  Task       37 on host ravg1025 reporting.
  Task       38 on host ravg1025 reporting.
  Task       39 on host ravg1025 reporting.
  Task       40 on host ravg1025 reporting.
  Task       41 on host ravg1025 reporting.
  Task       42 on host ravg1025 reporting.
  Task       43 on host ravg1025 reporting.
  Task       44 on host ravg1025 reporting.
  Task       45 on host ravg1025 reporting.
  Task       46 on host ravg1025 reporting.
  Task       47 on host ravg1025 reporting.
  Task       48 on host ravg1025 reporting.
  Task       49 on host ravg1025 reporting.
  Task       50 on host ravg1025 reporting.
  Task       51 on host ravg1025 reporting.
  Task       52 on host ravg1025 reporting.
  Task       53 on host ravg1025 reporting.
  Task       54 on host ravg1025 reporting.
  Task       55 on host ravg1025 reporting.
  Task       56 on host ravg1025 reporting.
  Task       57 on host ravg1025 reporting.
  Task       58 on host ravg1025 reporting.
  Task       59 on host ravg1025 reporting.
  Task       60 on host ravg1025 reporting.
  Task       61 on host ravg1025 reporting.
  Task       62 on host ravg1025 reporting.
  Task       63 on host ravg1025 reporting.
  Task       64 on host ravg1025 reporting.
  Task       65 on host ravg1025 reporting.
  Task       66 on host ravg1025 reporting.
  Task       67 on host ravg1025 reporting.
  Task       68 on host ravg1025 reporting.
  Task       69 on host ravg1025 reporting.
  Task       70 on host ravg1025 reporting.
  Task       71 on host ravg1025 reporting.
  Task       72 on host ravg1026 reporting.
  Task       73 on host ravg1026 reporting.
  Task       74 on host ravg1026 reporting.
  Task       75 on host ravg1026 reporting.
  Task       76 on host ravg1026 reporting.
  Task       77 on host ravg1026 reporting.
  Task       78 on host ravg1026 reporting.
  Task       79 on host ravg1026 reporting.
  Task       80 on host ravg1026 reporting.
  Task       81 on host ravg1026 reporting.
  Task       82 on host ravg1026 reporting.
  Task       83 on host ravg1026 reporting.
  Task       84 on host ravg1026 reporting.
  Task       85 on host ravg1026 reporting.
  Task       86 on host ravg1026 reporting.
  Task       87 on host ravg1026 reporting.
  Task       88 on host ravg1026 reporting.
  Task       89 on host ravg1026 reporting.
  Task       90 on host ravg1026 reporting.
  Task       91 on host ravg1026 reporting.
  Task       92 on host ravg1026 reporting.
  Task       93 on host ravg1026 reporting.
  Task       94 on host ravg1026 reporting.
  Task       95 on host ravg1026 reporting.
  Task       96 on host ravg1026 reporting.
  Task       97 on host ravg1026 reporting.
  Task       98 on host ravg1026 reporting.
  Task       99 on host ravg1026 reporting.
  Task      100 on host ravg1026 reporting.
  Task      101 on host ravg1026 reporting.
  Task      102 on host ravg1026 reporting.
  Task      103 on host ravg1026 reporting.
  Task      104 on host ravg1026 reporting.
  Task      105 on host ravg1026 reporting.
  Task      106 on host ravg1026 reporting.
  Task      107 on host ravg1026 reporting.
  Task      108 on host ravg1026 reporting.
  Task      109 on host ravg1026 reporting.
  Task      110 on host ravg1026 reporting.
  Task      111 on host ravg1026 reporting.
  Task      112 on host ravg1026 reporting.
  Task      113 on host ravg1026 reporting.
  Task      114 on host ravg1026 reporting.
  Task      115 on host ravg1026 reporting.
  Task      116 on host ravg1026 reporting.
  Task      117 on host ravg1026 reporting.
  Task      118 on host ravg1026 reporting.
  Task      119 on host ravg1026 reporting.
  Task      120 on host ravg1026 reporting.
  Task      121 on host ravg1026 reporting.
  Task      122 on host ravg1026 reporting.
  Task      123 on host ravg1026 reporting.
  Task      124 on host ravg1026 reporting.
  Task      125 on host ravg1026 reporting.
  Task      126 on host ravg1026 reporting.
  Task      127 on host ravg1026 reporting.
  Task      128 on host ravg1026 reporting.
  Task      129 on host ravg1026 reporting.
  Task      130 on host ravg1026 reporting.
  Task      131 on host ravg1026 reporting.
  Task      132 on host ravg1026 reporting.
  Task      133 on host ravg1026 reporting.
  Task      134 on host ravg1026 reporting.
  Task      135 on host ravg1026 reporting.
  Task      136 on host ravg1026 reporting.
  Task      137 on host ravg1026 reporting.
  Task      138 on host ravg1026 reporting.
  Task      139 on host ravg1026 reporting.
  Task      140 on host ravg1026 reporting.
  Task      141 on host ravg1026 reporting.
  Task      142 on host ravg1026 reporting.
  Task      143 on host ravg1026 reporting.
  Task      144 on host ravg1027 reporting.
  Task      145 on host ravg1027 reporting.
  Task      146 on host ravg1027 reporting.
  Task      147 on host ravg1027 reporting.
  Task      148 on host ravg1027 reporting.
  Task      149 on host ravg1027 reporting.
  Task      150 on host ravg1027 reporting.
  Task      151 on host ravg1027 reporting.
  Task      152 on host ravg1027 reporting.
  Task      153 on host ravg1027 reporting.
  Task      154 on host ravg1027 reporting.
  Task      155 on host ravg1027 reporting.
  Task      156 on host ravg1027 reporting.
  Task      157 on host ravg1027 reporting.
  Task      158 on host ravg1027 reporting.
  Task      159 on host ravg1027 reporting.
  Task      160 on host ravg1027 reporting.
  Task      161 on host ravg1027 reporting.
  Task      162 on host ravg1027 reporting.
  Task      163 on host ravg1027 reporting.
  Task      164 on host ravg1027 reporting.
  Task      165 on host ravg1027 reporting.
  Task      166 on host ravg1027 reporting.
  Task      167 on host ravg1027 reporting.
  Task      168 on host ravg1027 reporting.
  Task      169 on host ravg1027 reporting.
  Task      170 on host ravg1027 reporting.
  Task      171 on host ravg1027 reporting.
  Task      172 on host ravg1027 reporting.
  Task      173 on host ravg1027 reporting.
  Task      174 on host ravg1027 reporting.
  Task      175 on host ravg1027 reporting.
  Task      176 on host ravg1027 reporting.
  Task      177 on host ravg1027 reporting.
  Task      178 on host ravg1027 reporting.
  Task      179 on host ravg1027 reporting.
  Task      180 on host ravg1027 reporting.
  Task      181 on host ravg1027 reporting.
  Task      182 on host ravg1027 reporting.
  Task      183 on host ravg1027 reporting.
  Task      184 on host ravg1027 reporting.
  Task      185 on host ravg1027 reporting.
  Task      186 on host ravg1027 reporting.
  Task      187 on host ravg1027 reporting.
  Task      188 on host ravg1027 reporting.
  Task      189 on host ravg1027 reporting.
  Task      190 on host ravg1027 reporting.
  Task      191 on host ravg1027 reporting.
  Task      192 on host ravg1027 reporting.
  Task      193 on host ravg1027 reporting.
  Task      194 on host ravg1027 reporting.
  Task      195 on host ravg1027 reporting.
  Task      196 on host ravg1027 reporting.
  Task      197 on host ravg1027 reporting.
  Task      198 on host ravg1027 reporting.
  Task      199 on host ravg1027 reporting.
  Task      200 on host ravg1027 reporting.
  Task      201 on host ravg1027 reporting.
  Task      202 on host ravg1027 reporting.
  Task      203 on host ravg1027 reporting.
  Task      204 on host ravg1027 reporting.
  Task      205 on host ravg1027 reporting.
  Task      206 on host ravg1027 reporting.
  Task      207 on host ravg1027 reporting.
  Task      208 on host ravg1027 reporting.
  Task      209 on host ravg1027 reporting.
  Task      210 on host ravg1027 reporting.
  Task      211 on host ravg1027 reporting.
  Task      212 on host ravg1027 reporting.
  Task      213 on host ravg1027 reporting.
  Task      214 on host ravg1027 reporting.
  Task      215 on host ravg1027 reporting.
  Task      216 on host ravg1028 reporting.
  Task      217 on host ravg1028 reporting.
  Task      218 on host ravg1028 reporting.
  Task      219 on host ravg1028 reporting.
  Task      220 on host ravg1028 reporting.
  Task      221 on host ravg1028 reporting.
  Task      222 on host ravg1028 reporting.
  Task      223 on host ravg1028 reporting.
  Task      224 on host ravg1028 reporting.
  Task      225 on host ravg1028 reporting.
  Task      226 on host ravg1028 reporting.
  Task      227 on host ravg1028 reporting.
  Task      228 on host ravg1028 reporting.
  Task      229 on host ravg1028 reporting.
  Task      230 on host ravg1028 reporting.
  Task      231 on host ravg1028 reporting.
  Task      232 on host ravg1028 reporting.
  Task      233 on host ravg1028 reporting.
  Task      234 on host ravg1028 reporting.
  Task      235 on host ravg1028 reporting.
  Task      236 on host ravg1028 reporting.
  Task      237 on host ravg1028 reporting.
  Task      238 on host ravg1028 reporting.
  Task      239 on host ravg1028 reporting.
  Task      240 on host ravg1028 reporting.
  Task      241 on host ravg1028 reporting.
  Task      242 on host ravg1028 reporting.
  Task      243 on host ravg1028 reporting.
  Task      244 on host ravg1028 reporting.
  Task      245 on host ravg1028 reporting.
  Task      246 on host ravg1028 reporting.
  Task      247 on host ravg1028 reporting.
  Task      248 on host ravg1028 reporting.
  Task      249 on host ravg1028 reporting.
  Task      250 on host ravg1028 reporting.
  Task      251 on host ravg1028 reporting.
  Task      252 on host ravg1028 reporting.
  Task      253 on host ravg1028 reporting.
  Task      254 on host ravg1028 reporting.
  Task      255 on host ravg1028 reporting.
  Task      256 on host ravg1028 reporting.
  Task      257 on host ravg1028 reporting.
  Task      258 on host ravg1028 reporting.
  Task      259 on host ravg1028 reporting.
  Task      260 on host ravg1028 reporting.
  Task      261 on host ravg1028 reporting.
  Task      262 on host ravg1028 reporting.
  Task      263 on host ravg1028 reporting.
  Task      264 on host ravg1028 reporting.
  Task      265 on host ravg1028 reporting.
  Task      266 on host ravg1028 reporting.
  Task      267 on host ravg1028 reporting.
  Task      268 on host ravg1028 reporting.
  Task      269 on host ravg1028 reporting.
  Task      270 on host ravg1028 reporting.
  Task      271 on host ravg1028 reporting.
  Task      272 on host ravg1028 reporting.
  Task      273 on host ravg1028 reporting.
  Task      274 on host ravg1028 reporting.
  Task      275 on host ravg1028 reporting.
  Task      276 on host ravg1028 reporting.
  Task      277 on host ravg1028 reporting.
  Task      278 on host ravg1028 reporting.
  Task      279 on host ravg1028 reporting.
  Task      280 on host ravg1028 reporting.
  Task      281 on host ravg1028 reporting.
  Task      282 on host ravg1028 reporting.
  Task      283 on host ravg1028 reporting.
  Task      284 on host ravg1028 reporting.
  Task      285 on host ravg1028 reporting.
  Task      286 on host ravg1028 reporting.
  Task      287 on host ravg1028 reporting.

  Performing system and environment tests:
  | Environment variable OMP_NUM_THREADS correctly set to 1.
  | Checking for ScaLAPACK...
  | Testing pdtran()...
  | All pdtran() tests passed.

  Obtaining array dimensions for all initial allocations:
  
  -----------------------------------------------------------------------
  Parsing control.in (first pass over file, find array dimensions only).
  The contents of control.in will be repeated verbatim below
  unless switched off by setting 'verbatim_writeout .false.' .
  in the first line of control.in .
  -----------------------------------------------------------------------
  
  ##### Physical settings  ################
  xc                 hse06  0.5
  hybrid_xc_coeff 0.5
  hse_unit A
  spin               none
  charge      0.0
  relativistic       atomic_zora scalar
  #elsi_restart read
  # SCF settings
  #relax_geometry trm 1E-3
  #use_symmetric_forces .true.
  #vdw_correction_hirshfeld
  occupation_type gaussian       0.01
  # k-grid settings  (to be adjusted)
  k_grid   4 4 1
  #empty_states 8
   sc_accuracy_rho    1E-5
      sc_accuracy_eev    1E-4
      sc_accuracy_etot   1E-5
      sc_accuracy_forces 1E-2
  use_dipole_correction
  output dos_tetrahedron -10 0 1001 0.1
  output atom_proj_dos_tetrahedron -10 0 1001 0.1
  output species_proj_dos_tetrahedron -10 0 1001 0.1
  many_body_dispersion_nl    beta=0.81
  ################################################################################
  #
  #  FHI-aims code project
  # Volker Blum, Fritz Haber Institute Berlin, 2009
  #
  #  Suggested "intermediate" defaults for Mo atom (to be pasted into control.in file)
  #
  #  See https://aaltodoc.aalto.fi/handle/123456789/33620 for the report these
  #  setting are based on
  ################################################################################
    species        Mo
  #     global species definitions
      nucleus             42
      mass                95.94
  #
      l_hartree           6
  #
      cut_pot             4.0  2.0  1.0
      basis_dep_cutoff    1e-4
  #
      radial_base         59 7.0
      radial_multiplier   2
      angular_grids specified
        division   0.3117   50
        division   0.6750  110
        division   1.0351  194
        division   1.2073  302
        division   1.6402  434
  #      division   1.9185  590
  #      division   2.0237  770
  #      division   2.0980  974
  #      division   2.7972 1202
  #      outer_grid  974
        outer_grid  434
  ################################################################################
  #
  #  Definition of "minimal" basis
  #
  ################################################################################
  #     valence basis states
      valence      5  s   1.
      valence      4  p   6.
      valence      4  d   5.
  #     ion occupancy
      ion_occ     5  s   0.
      ion_occ     4  p   6.
      ion_occ     4  d   4.
  ################################################################################
  #
  #  Suggested additional basis functions. For production calculations,
  #  uncomment them one after another (the most important basis functions are
  #  listed first).
  #
  #  Constructed for dimers: 1.675 A, 1.9 A, 2.375 A, 3.00 A, 4.00 A
  #
  ################################################################################
  #  "First tier"  - max. impr. -711.23  meV, min. impr. -21.07 meV
       hydro 4 f 8.4
       hydro 3 d 2.8
       ionic 5 p auto
       for_aux hydro 5 g 12
       ionic 5 s auto
  #  "Second tier" - max. impr. -39.38  meV, min. impr. -2.68 meV
  #     hydro 4 f 12.4
  #     hydro 3 d 3.3
  #     hydro 6 h 17.2
  #     hydro 4 f 7.6
  #     hydro 3 p 3.0
  #     hydro 1 s 0.65
  #  "Third tier"  - max. impr. -5.50 meV, min. impr. -0.47 meV
  #     hydro 4 f 29.2
  #     hydro 5 g 11.2
  #     hydro 3 d 6.8
  #     hydro 6 h 14.8
  #     hydro 2 p 2.3
  #     hydro 4 s 3.8
  #  "Fourth tier"  - max. impr. -0.58 meV, min. impr. -0.19 meV
  #     hydro 5 f 6.8
  #     hydro 5 d 14.8
  #     hydro 6 s 7.8
  #     hydro 5 g 20.8
  #     hydro 5 d 10.4
  #     hydro 5 p 9.8
  #  Further functions - -0.17 meV and below
  #     hydro 5 d 3.2
  ################################################################################
  #
  #  FHI-aims code project
  #  Volker Blum, 2018
  #
  #  Suggested "intermediate" defaults for S atom (to be pasted into control.in file)
  #
  ################################################################################
    species        S
  #     global species definitions
      nucleus             16
      mass                32.065
  #
      l_hartree           6
  #
      cut_pot             4.0          2.0  1.0
      basis_dep_cutoff    1e-4
  #
      radial_base         44 7.0
      radial_multiplier   2
      angular_grids       specified
        division   0.4665  110
        division   0.5810  194
        division   0.7139  302
        division   0.8274  434
  #      division   0.9105  590
  #      division   1.0975  770
  #      division   1.2028  974
  #      outer_grid  974
        outer_grid  434
  ################################################################################
  #
  #  Definition of "minimal" basis
  #
  ################################################################################
  #     valence basis states
      valence      3  s   2.
      valence      3  p   4.
  #     ion occupancy
      ion_occ      3  s   1.
      ion_occ      3  p   3.
  ################################################################################
  #
  #  Suggested additional basis functions. For production calculations,
  #  uncomment them one after another (the most important basis functions are
  #  listed first).
  #
  #  Constructed for dimers: 1.6 A, 1.9 A, 2.5 A, 3.25 A, 4.0 A
  #
  ################################################################################
  #  "First tier" - improvements: -652.81 meV to -45.53 meV
       ionic 3 d auto
       hydro 2 p 1.8
       hydro 4 f 7
       ionic 3 s auto
  #  "Second tier" - improvements: -30.20 meV to -1.74 meV
  #     hydro 4 d 6.2
  for_aux     hydro 5 g 10.8
  #     hydro 4 p 4.9
  #     hydro 5 f 10
  #     hydro 1 s 0.8
  #  "Third tier" - improvements: -1.04 meV to -0.20 meV
  #     hydro 3 d 3.9
  #     hydro 3 d 2.7
  #     hydro 5 g 12
  #     hydro 4 p 10.4
  #     hydro 5 f 12.4
  #     hydro 2 s 1.9
  #  "Fourth tier" - improvements: -0.35 meV to -0.06 meV
  #     hydro 4 d 10.4
  #     hydro 4 p 7.2
  #     hydro 4 d 10
  #     hydro 5 g 19.2
  #     hydro 4 s 12
  
  ################################################################################
  #
  #  FHI-aims code project
  #  Volker Blum, 2018
  #
  #  Suggested "intermediate" defaults for Se atom (to be pasted into control.in file)
  #
  #  For elements 31-35 (Ga-Br), the "intermediate" defaults are currently identical to the "tight"
  #  defaults and are provided for consistency only. In these cases, I believe that the current
  #  "tight" settings cannot be reduced in a simple way.
  #
  ################################################################################
    species        Se
  #     global species definitions
      nucleus             34
      mass                78.96
  #
      l_hartree           6
  #
      cut_pot             4.0          2.0  1.0
      basis_dep_cutoff    1e-4
  #
      radial_base         55 7.0
      radial_multiplier   2
      angular_grids       specified
        division   0.0830  110
        division   0.1357  194
        division   0.7377  302
        division   0.8610  434
  #      division   0.9640  590
  #      division   1.0773  770
  #      division   2.5539  974
  #      outer_grid  974
        outer_grid  434
  ################################################################################
  #
  #  Definition of "minimal" basis
  #
  ################################################################################
  #     valence basis states
      valence      4  s   2.
      valence      4  p   4.
      valence      3  d  10.
  #     ion occupancy
      ion_occ      4  s   1.
      ion_occ      4  p   3.
      ion_occ      3  d  10.
  ################################################################################
  #
  #  Suggested additional basis functions. For production calculations,
  #  uncomment them one after another (the most important basis functions are
  #  listed first).
  #
  #  Constructed for dimers: 1.85 A, 2.15 A, 2.50 A, 3.00 A, 4.00 A
  #
  ################################################################################
  #  "First tier" - improvements: -336.21 meV to -36.85 meV
       hydro 3 d 4.3
       hydro 2 p 1.6
       hydro 4 f 7.2
       ionic 4 s auto
  #  "Second tier" - improvements: -14.39 meV to -1.49 meV
  #     hydro 5 g 10.4
  #     hydro 4 p 4.5
  #     hydro 4 d 6.2
  #     hydro 4 f 11.2
  #     hydro 1 s 0.65
  #     hydro 6 h 15.2
  #  "Third tier" - improvements: -0.46 meV and below
  #     hydro 5 g 14.4
  #     ionic 4 d auto
  #     hydro 4 f 22.4
  #     hydro 5 f 7.4
  #     hydro 5 p 8
  #     hydro 5 s 9.4
  #  "Fourth tier" - improvements: -0.12 meV and below
  #     hydro 5 d 11.6
  #     hydro 6 h 18
  #     hydro 4 p 4
  #     hydro 5 f 16
  #     hydro 4 s 3.9
  
  ################################################################################
  #
  #  FHI-aims code project
  #  Volker Blum, Maria Dragoumi, Sebastian Kokott 2020
  #
  #  Suggested "intermediate" defaults for W atom (to be pasted into control.in file)
  #
  ################################################################################
    species          W
  #     global species definitions
      nucleus        74
      mass           183.84
  #
      l_hartree      6
  #
      cut_pot        4.0  2.0  1.0
      basis_dep_cutoff    1e-4
  #
      radial_base    71  7.0
      radial_multiplier  2
      angular_grids specified
        division   0.2901   50
        division   0.6986  110
        division   1.0528  194
        division   1.2659  302
        division   1.5223  434
  #      division   1.8111  590
  #      division   2.0105  770
  #      division   2.0413  974
  #      division   2.8804 1202
  #      outer_grid  974
        outer_grid  434
  ################################################################################
  #
  #  Definition of "minimal" basis
  #
  ################################################################################
  #     valence basis states
      valence      6  s   2.
      valence      5  p   6.
      valence      5  d   4.
      valence      4  f  14.
  #     ion occupancy
      ion_occ      6  s   1.
      ion_occ      5  p   6.
      ion_occ      5  d   3.
      ion_occ      4  f  14.
  ################################################################################
  #
  #  Suggested additional basis functions. For production calculations,
  #  uncomment them one after another (the most important basis functions are
  #  listed first).
  #
  #  Constructed for dimers: 1.775, 1.99, 2.50, 3.25, 4.50 AA
  #
  ################################################################################
  #
  #  "First tier" - improvements: -603.77 meV to -28.99 meV
       hydro 4 f 7.8
       hydro 4 d 5.8
       ionic 6 p auto
    for_aux   hydro 5 g 12.4
       ionic 6 s auto
  #  "Second tier" - improvements: -28.30 meV to -1.31 meV
  #     hydro 6 h 16.8
  #     ionic 5 d auto
  #     hydro 4 f 8.6
  #     hydro 5 g 16.8
  #     hydro 5 d 8.4
  #     hydro 3 p 3.3
  #     hydro 1 s 0.55
  #  "Third tier" - max. impr. -1.79 meV, min. impr. -0.26 meV
  #     hydro 5 f 10.8
  #     hydro 5 g 34.4
  #     hydro 6 h 20.8
  #     hydro 5 g 12.8
  #     hydro 2 p 1.6
  #     hydro 4 s 4.7
  #     hydro 6 d 18.4
  #  "Fourth tier" -0.46 max. impr. - meV, min. impr. -0.09 meV
  #     hydro 6 h 21.6
  #     hydro 5 f 22.4
  #     hydro 4 f 4
  #     hydro 5 p 9.6
  #     hydro 6 d 17.2
  #     hydro 3 p 5.2
  #     hydro 5 g 4.7
  #     hydro 6 s 7.6
  
  -----------------------------------------------------------------------
  Completed first pass over input file control.in .
  -----------------------------------------------------------------------
  
  
  -----------------------------------------------------------------------
  Parsing geometry.in (first pass over file, find array dimensions only).
  The contents of geometry.in will be repeated verbatim below
  unless switched off by setting 'verbatim_writeout .false.' .
  in the first line of geometry.in .
  -----------------------------------------------------------------------
  
  #
  # This is the geometry file that corresponds to the current relaxation step.
  # If you do not want this file to be written, set the "write_restart_geometry" flag to .false.
  #  aims_uuid : 509929ED-56DF-445E-A3EF-6DA17201C032
  #
    set_vacuum_level        52.746911
  lattice_vector     16.29568820      0.00000000      0.00000000
  lattice_vector     -8.14028310     14.11790945      0.00000000
  lattice_vector      0.00000000      0.00000000    100.31494303
  atom_frac       0.03376382      0.06734671      0.02676416 W
  atom_frac       0.16811017      0.13623289      0.04319349 Se
  atom_frac       0.16660760      0.13321594      0.01003924 Se
  atom_frac       0.03466011      0.26818256      0.02674964 W
  atom_frac       0.17372810      0.34045900      0.04283535 Se
  atom_frac       0.16666707      0.33501486      0.00975427 Se
  atom_frac       0.03467866      0.46646023      0.02675172 W
  atom_frac       0.17376943      0.53327644      0.04283820 Se
  atom_frac       0.16666217      0.53165315      0.00975436 Se
  atom_frac       0.03376667      0.66639449      0.02676554 W
  atom_frac       0.16812025      0.73188311      0.04319419 Se
  atom_frac       0.16661052      0.73339180      0.01004002 Se
  atom_frac       0.03333978      0.86665970      0.02676847 W
  atom_frac       0.16694363      0.93347405      0.04334643 Se
  atom_frac       0.16694155      0.93347022      0.01020165 Se
  atom_frac       0.23360092      0.06734794      0.02676522 W
  atom_frac       0.36645922      0.13478788      0.04343217 Se
  atom_frac       0.36729644      0.13378412      0.01026132 Se
  atom_frac       0.23448875      0.26895429      0.02631532 W
  atom_frac       0.36671978      0.34049157      0.04283719 Se
  atom_frac       0.36834688      0.33501418      0.00975375 Se
  atom_frac       0.24233670      0.47115656      0.02571098 W
  atom_frac       0.36665822      0.53334393      0.00811415 Se
  atom_frac       0.23449443      0.66550792      0.02631593 W
  atom_frac       0.36672923      0.72624002      0.04283777 Se
  atom_frac       0.36834674      0.73334015      0.00975369 Se
  atom_frac       0.23360664      0.86623230      0.02676562 W
  atom_frac       0.36646384      0.93168056      0.04343194 Se
  atom_frac       0.36729649      0.93351971      0.01026149 Se
  atom_frac       0.43317588      0.06658208      0.02695569 W
  atom_frac       0.56624878      0.13313000      0.04361678 Se
  atom_frac       0.56684712      0.13343471      0.01042921 Se
  atom_frac       0.43353873      0.26819756      0.02675185 W
  atom_frac       0.56581628      0.33418593      0.04350265 Se
  atom_frac       0.56691746      0.33308432      0.01026825 Se
  atom_frac       0.42882561      0.47116311      0.02571035 W
  atom_frac       0.55949814      0.53327939      0.04283718 Se
  atom_frac       0.56497858      0.53164907      0.00975361 Se
  atom_frac       0.42884152      0.65766863      0.02571013 W
  atom_frac       0.55953654      0.72627383      0.04283490 Se
  atom_frac       0.56498186      0.73333336      0.00975343 Se
  atom_frac       0.43354232      0.86532243      0.02675135 W
  atom_frac       0.56582852      0.93165278      0.04350080 Se
  atom_frac       0.56691643      0.93385053      0.01026641 Se
  atom_frac       0.63315857      0.06630408      0.02701596 W
  atom_frac       0.76687469      0.13312868      0.04361547 Se
  atom_frac       0.76657031      0.13343465      0.01042810 Se
  atom_frac       0.63315635      0.26684461      0.02701719 W
  atom_frac       0.76687384      0.33375521      0.04361694 Se
  atom_frac       0.76656936      0.33315599      0.01042945 Se
  atom_frac       0.63179613      0.46646233      0.02675184 W
  atom_frac       0.76521100      0.53354407      0.04343217 Se
  atom_frac       0.76621343      0.53270410      0.01026136 Se
  atom_frac       0.63103367      0.66550701      0.02631506 W
  atom_frac       0.76376207      0.73188997      0.04319307 Se
  atom_frac       0.76677785      0.73339122      0.01003906 Se
  atom_frac       0.63180970      0.86533650      0.02674921 W
  atom_frac       0.76521958      0.93168908      0.04343009 Se
  atom_frac       0.76622124      0.93352112      0.01025887 Se
  atom_frac       0.83341932      0.06658089      0.02695332 W
  atom_frac       0.96831173      0.13477814      0.04343046 Se
  atom_frac       0.96647968      0.13377721      0.01025906 Se
  atom_frac       0.83369901      0.26684357      0.02701611 W
  atom_frac       0.96835486      0.33417608      0.04350127 Se
  atom_frac       0.96615457      0.33308658      0.01026716 Se
  atom_frac       0.83341837      0.46682583      0.02695574 W
  atom_frac       0.96832192      0.53354167      0.04343226 Se
  atom_frac       0.96648133      0.53270557      0.01026171 Se
  atom_frac       0.83264760      0.66639670      0.02676507 W
  atom_frac       0.96652569      0.73305779      0.04334631 Se
  atom_frac       0.96652908      0.73305947      0.01020159 Se
  atom_frac       0.83264779      0.86623410      0.02676403 W
  atom_frac       0.96652416      0.93347469      0.04334547 Se
  atom_frac       0.96652951      0.93346910      0.01020073 Se
  #
  # What follows is the current estimated Hessian matrix constructed by the BFGS algorithm.
  # This is NOT the true Hessian matrix of the system.
  # If you do not want this information here, switch it off using the "hessian_to_restart_geometry" keyword.
  #
  
  -----------------------------------------------------------------------
  Completed first pass over input file geometry.in .
  -----------------------------------------------------------------------
  

  Basic array size parameters:
  | Number of species                 :        4
  | Number of atoms                   :       74
  | Number of lattice vectors         :        3
  | Max. basis fn. angular momentum   :        4
  | Max. atomic/ionic basis occupied n:        6
  | Max. number of basis fn. types    :        3
  | Max. radial fns per species/type  :       14
  | Max. logarithmic grid size        :     1483
  | Max. radial integration grid size :      143
  | Max. angular integration grid size:      434
  | Max. angular grid division number :        8
  | Radial grid for Hartree potential :     1483
  | Number of spin channels           :        1

------------------------------------------------------------
          Reading file control.in.
------------------------------------------------------------

  XC: Using HSE-functional with OMEGA =  0.500000E+00 <units>.
  XC: For the actual units (bohr^-1 or Angstrom^-1), see below.
  hybrid_xc_coeff: Mixing coefficient for hybrid-functional exact exchange modified to         0.50000000 .
  * WARNING: This change modifies the chosen exchange-correlation functional (keyword 'xc')
  * from its literature definition. Be sure to NEVER include such a line in any default control.in files!
  hse_unit: Unit for the HSE06 hybrid functional screening parameter set to A^(-1).
  Spin treatment: No spin polarisation.
  Charge =   0.000000E+00: Neutral system requested explicitly.
  Scalar relativistic treatment of kinetic energy: on-site free-atom approximation to ZORA.
  Occupation type: Gaussian broadening, width =   0.100000E-01 eV.
  Found k-point grid:         4         4         1
  Convergence accuracy of self-consistent charge density:  0.1000E-04
  Convergence accuracy of sum of eigenvalues:  0.1000E-03
  Convergence accuracy of total energy:  0.1000E-04
  Convergence accuracy of forces:  0.1000E-01
  Using dipole correction.
  Calculating density of states with
  | energy interval :-10.000000  0.000000
  | points & tetrahedron method :  1001
  Calculating atom-projected density of states with
  | energy interval :-10.000000  0.000000
  | points & tetrahedron :  1001
  Calculating angular-momentum projected DOS with 
  | energy interval :-10.000000  0.000000
  | points & tetrahedron :  1001
  Using libMBD for calculating MBD and TS energies
 
  Reading configuration options for species Mo                  .
  | Found nuclear charge :  42.0000
  | Found atomic mass :    95.9400000000000      amu
  | Found l_max for Hartree potential  :   6
  | Found cutoff potl. onset [A], width [A], scale factor :    4.00000    2.00000    1.00000
  | Threshold for basis-dependent cutoff potential is   0.100000E-03
  | Found data for basic radial integration grid :    59 points, outermost radius =    7.000 A
  | Found multiplier for basic radial grid :   2
  | Found angular grid specification: user-specified.
  | Specified grid contains     6 separate shells.
  | Check grid settings after all constraints further below.
  | Found free-atom valence shell :  5 s   1.000
  | Found free-atom valence shell :  4 p   6.000
  | Found free-atom valence shell :  4 d   5.000
  | Found free-ion valence shell :  5 s   0.000
  | Found free-ion valence shell :  4 p   6.000
  | Found free-ion valence shell :  4 d   4.000
  | Found hydrogenic basis function :  4 f   8.400
  | Found hydrogenic basis function :  3 d   2.800
  | Found ionic basis function :  5 p , default cutoff radius.
  | Found hydrogenic extended basis function :  5 g  12.000
  | Found ionic basis function :  5 s , default cutoff radius.
  Species Mo                  : Missing cutoff potential type.
  Defaulting to exp(1/x)/(1-x)^2 type cutoff potential.
  Species Mo: No 'logarithmic' tag. Using default grid for free atom:
  | Default logarithmic grid data [bohr] : 0.1000E-03 0.1000E+03 0.1012E+01
  | Will include ionic basis functions of  2.0-fold positive Mo                   ion.
  Species Mo: On-site basis accuracy parameter (for Gram-Schmidt orthonormalisation) not specified.
  Using default value basis_acc =  0.1000000E-03.
  Species Mo                  : Using default innermost maximum threshold i_radial=  2 for radial functions.
  Species Mo                  : Default cutoff onset for free atom density etc. : 0.40000000E+01 AA.
  Species Mo                  : Basic radial grid will be enhanced according to radial_multiplier =   2, to contain   119 grid points.
 
  Reading configuration options for species S                   .
  | Found nuclear charge :  16.0000
  | Found atomic mass :    32.0650000000000      amu
  | Found l_max for Hartree potential  :   6
  | Found cutoff potl. onset [A], width [A], scale factor :    4.00000    2.00000    1.00000
  | Threshold for basis-dependent cutoff potential is   0.100000E-03
  | Found data for basic radial integration grid :    44 points, outermost radius =    7.000 A
  | Found multiplier for basic radial grid :   2
  | Found angular grid specification: user-specified.
  | Specified grid contains     5 separate shells.
  | Check grid settings after all constraints further below.
  | Found free-atom valence shell :  3 s   2.000
  | Found free-atom valence shell :  3 p   4.000
  | Found free-ion valence shell :  3 s   1.000
  | Found free-ion valence shell :  3 p   3.000
  | Found ionic basis function :  3 d , default cutoff radius.
  | Found hydrogenic basis function :  2 p   1.800
  | Found hydrogenic basis function :  4 f   7.000
  | Found ionic basis function :  3 s , default cutoff radius.
  | Found hydrogenic extended basis function :  5 g  10.800
  Species S                   : Missing cutoff potential type.
  Defaulting to exp(1/x)/(1-x)^2 type cutoff potential.
  Species S : No 'logarithmic' tag. Using default grid for free atom:
  | Default logarithmic grid data [bohr] : 0.1000E-03 0.1000E+03 0.1012E+01
  | Will include ionic basis functions of  2.0-fold positive S                    ion.
  Species S : On-site basis accuracy parameter (for Gram-Schmidt orthonormalisation) not specified.
  Using default value basis_acc =  0.1000000E-03.
  Species S                   : Using default innermost maximum threshold i_radial=  2 for radial functions.
  Species S                   : Default cutoff onset for free atom density etc. : 0.40000000E+01 AA.
  Species S                   : Basic radial grid will be enhanced according to radial_multiplier =   2, to contain    89 grid points.
 
  Reading configuration options for species Se                  .
  | Found nuclear charge :  34.0000
  | Found atomic mass :    78.9600000000000      amu
  | Found l_max for Hartree potential  :   6
  | Found cutoff potl. onset [A], width [A], scale factor :    4.00000    2.00000    1.00000
  | Threshold for basis-dependent cutoff potential is   0.100000E-03
  | Found data for basic radial integration grid :    55 points, outermost radius =    7.000 A
  | Found multiplier for basic radial grid :   2
  | Found angular grid specification: user-specified.
  | Specified grid contains     5 separate shells.
  | Check grid settings after all constraints further below.
  | Found free-atom valence shell :  4 s   2.000
  | Found free-atom valence shell :  4 p   4.000
  | Found free-atom valence shell :  3 d  10.000
  | Found free-ion valence shell :  4 s   1.000
  | Found free-ion valence shell :  4 p   3.000
  | Found free-ion valence shell :  3 d  10.000
  | Found hydrogenic basis function :  3 d   4.300
  | Found hydrogenic basis function :  2 p   1.600
  | Found hydrogenic basis function :  4 f   7.200
  | Found ionic basis function :  4 s , default cutoff radius.
  Species Se                  : Missing cutoff potential type.
  Defaulting to exp(1/x)/(1-x)^2 type cutoff potential.
  Species Se: No 'logarithmic' tag. Using default grid for free atom:
  | Default logarithmic grid data [bohr] : 0.1000E-03 0.1000E+03 0.1012E+01
  | Will include ionic basis functions of  2.0-fold positive Se                   ion.
  Species Se: On-site basis accuracy parameter (for Gram-Schmidt orthonormalisation) not specified.
  Using default value basis_acc =  0.1000000E-03.
  Species Se                  : Using default innermost maximum threshold i_radial=  2 for radial functions.
  Species Se                  : Default cutoff onset for free atom density etc. : 0.40000000E+01 AA.
  Species Se                  : Basic radial grid will be enhanced according to radial_multiplier =   2, to contain   111 grid points.
 
  Reading configuration options for species W                   .
  | Found nuclear charge :  74.0000
  | Found atomic mass :    183.840000000000      amu
  | Found l_max for Hartree potential  :   6
  | Found cutoff potl. onset [A], width [A], scale factor :    4.00000    2.00000    1.00000
  | Threshold for basis-dependent cutoff potential is   0.100000E-03
  | Found data for basic radial integration grid :    71 points, outermost radius =    7.000 A
  | Found multiplier for basic radial grid :   2
  | Found angular grid specification: user-specified.
  | Specified grid contains     6 separate shells.
  | Check grid settings after all constraints further below.
  | Found free-atom valence shell :  6 s   2.000
  | Found free-atom valence shell :  5 p   6.000
  | Found free-atom valence shell :  5 d   4.000
  | Found free-atom valence shell :  4 f  14.000
  | Found free-ion valence shell :  6 s   1.000
  | Found free-ion valence shell :  5 p   6.000
  | Found free-ion valence shell :  5 d   3.000
  | Found free-ion valence shell :  4 f  14.000
  | Found hydrogenic basis function :  4 f   7.800
  | Found hydrogenic basis function :  4 d   5.800
  | Found ionic basis function :  6 p , default cutoff radius.
  | Found hydrogenic extended basis function :  5 g  12.400
  | Found ionic basis function :  6 s , default cutoff radius.
  Species W                   : Missing cutoff potential type.
  Defaulting to exp(1/x)/(1-x)^2 type cutoff potential.
  Species W : No 'logarithmic' tag. Using default grid for free atom:
  | Default logarithmic grid data [bohr] : 0.1000E-03 0.1000E+03 0.1012E+01
  | Will include ionic basis functions of  2.0-fold positive W                    ion.
  Species W : On-site basis accuracy parameter (for Gram-Schmidt orthonormalisation) not specified.
  Using default value basis_acc =  0.1000000E-03.
  Species W                   : Using default innermost maximum threshold i_radial=  2 for radial functions.
  Species W                   : Default cutoff onset for free atom density etc. : 0.40000000E+01 AA.
  Species W                   : Basic radial grid will be enhanced according to radial_multiplier =   2, to contain   143 grid points.
 
  Finished reading input file 'control.in'.
 
------------------------------------------------------------


------------------------------------------------------------
          Reading geometry description geometry.in.
------------------------------------------------------------
  Vacuum level in z-axis :   0.527469E+02
  | The smallest distance between any two atoms is         2.48887513 AA.
  | The first atom of this pair is atom number                     23 .
  | The second atom of this pair is atom number                    36 .
  | Wigner-Seitz cell of the first atom image           0     1     0 .
  | (The Wigner-Seitz cell of the second atom is 0 0 0  by definition.)

  Symmetry information by spglib:
  | Precision set to  0.1E-04
  | Number of Operations  : 1
  | Space group           : 1
  | International         : P1
  | Schoenflies           : C1^1
  Input structure read successfully.
  The structure contains       74 atoms,  and a total of       3516.000 electrons.

  Input geometry:
  | Unit cell:
  |       16.29568820        0.00000000        0.00000000
  |       -8.14028310       14.11790945        0.00000000
  |        0.00000000        0.00000000      100.31494303
  | Atomic structure:
  |       Atom                x [A]            y [A]            z [A]
  |    1: Species W             0.00198340        0.95079475        2.68484519
  |    2: Species Se            1.63049662        1.92332361        4.33295249
  |    3: Species Se            1.63057004        1.88073058        1.00708579
  |    4: Species W            -1.61827162        3.78617710        2.68338861
  |    5: Species Se            0.05958631        4.80656933        4.29702569
  |    6: Species Se           -0.01116120        4.72970946        0.97849904
  |    7: Species W            -3.23200570        6.58544329        2.68359727
  |    8: Species Se           -1.50932874        7.52874849        4.29731159
  |    9: Species Se           -1.61193239        7.50583103        0.97850807
  |   10: Species W            -4.87438868        9.40809707        2.68498362
  |   11: Species Se           -3.21810054       10.33265947        4.33302271
  |   12: Species Se           -3.25498379       10.35395902        1.00716403
  |   13: Species W            -6.51156065       12.23542317        2.68527754
  |   14: Species Se           -4.87828169       13.17870211        4.34829466
  |   15: Species Se           -4.87828441       13.17864804        1.02337794
  |   16: Species W             3.25845646        0.95081212        2.68495152
  |   17: Species Se            4.87449369        1.90292308        4.35689566
  |   18: Species Se            4.89630765        1.88875209        1.02936373
  |   19: Species W             1.63179149        3.79707231        2.63981983
  |   20: Species Se            3.20425342        4.80702915        4.29721027
  |   21: Species Se            3.27535564        4.72969986        0.97844688
  |   22: Species W             0.11369552        6.65174565        2.57919549
  |   23: Species Se            1.63337745        7.52970131        0.81397049
  |   24: Species W            -1.59617476        9.39558055        2.63988102
  |   25: Species Se            0.06430582       10.25299084        4.29726846
  |   26: Species Se            0.03286719       10.35322983        0.97844086
  |   27: Species W            -3.24459519       12.22938917        2.68499165
  |   28: Species Se           -1.61236304       13.15338178        4.35687259
  |   29: Species Se           -1.61376564       13.17934674        1.02938078
  |   30: Species W             6.51690210        0.93999978        2.70405851
  |   31: Species Se            8.14369767        1.87951729        4.37541480
  |   32: Species Se            8.15096761        1.88381915        1.04620561
  |   33: Species W             4.88160790        3.78638887        2.68361031
  |   34: Species Se            6.49999760        4.71800670        4.36396586
  |   35: Species Se            6.52690950        4.70245427        1.03005891
  |   36: Species W             3.15260733        6.65183812        2.57913230
  |   37: Species Se            4.77636203        7.52879014        4.29720927
  |   38: Species Se            4.87894084        7.50577343        0.97843283
  |   39: Species W             1.63465886        9.28490617        2.57911023
  |   40: Species Se            3.20595841       10.25346817        4.29698055
  |   41: Species Se            3.23722707       10.35313397        0.97841477
  |   42: Species W             0.02090092       12.21654371        2.68356015
  |   43: Species Se            1.63664776       13.15298959        4.36378027
  |   44: Species Se            1.63648569       13.18401722        1.02987433
  |   45: Species W             9.77802066        0.93607500        2.71010449
  |   46: Species Se           11.41304569        1.87949865        4.37528339
  |   47: Species Se           11.40559493        1.88381831        1.04609426
  |   48: Species W             8.14552779        3.76728804        2.71022788
  |   49: Species Se            9.77987509        4.71192583        4.37543085
  |   50: Species Se            9.77979120        4.70346610        1.04622968
  |   51: Species W             6.49841732        6.58547294        2.68360931
  |   52: Species Se            8.12644009        7.53252687        4.35689566
  |   53: Species Se            8.14961297        7.52066825        1.02936774
  |   54: Species W             4.86571246        9.39556771        2.63979374
  |   55: Species Se            6.48823700       10.33275632        4.33291036
  |   56: Species Se            6.52516061       10.35395084        1.00706773
  |   57: Species W             3.25168979       12.21674235        2.68334548
  |   58: Species Se            4.88556681       13.15350207        4.35668700
  |   59: Species Se            4.88697622       13.17936664        1.02911796
  |   60: Species W            13.03915408        0.93998298        2.70382076
  |   61: Species Se           14.68217382        1.90278558        4.35672412
  |   62: Species Se           14.66046716        1.88865454        1.02913702
  |   63: Species W            11.41351692        3.76727336        2.71011954
  |   64: Species Se           13.05972097        4.71786764        4.36382742
  |   65: Species Se           13.03273457        4.70248618        1.02994957
  |   66: Species W             9.78103148        6.59060480        2.70406352
  |   67: Species Se           11.43629185        7.53249298        4.35690469
  |   68: Species Se           11.41310426        7.52068900        1.02940285
  |   69: Species W             8.14390788        9.40812827        2.68493647
  |   70: Species Se            9.78290334       10.34924350        4.34828262
  |   71: Species Se            9.78294491       10.34926722        1.02337192
  |   72: Species W             6.51717796       12.22941459        2.68483214
  |   73: Species Se            8.15142811       13.17871115        4.34819835
  |   74: Species Se            8.15156079       13.17863223        1.02328565

  Lattice parameters for 3D lattice (in Angstroms) :    16.295688   16.296612  100.314943
  Angle(s) between unit vectors (in degrees)       :    90.000000   90.000000  119.967434


  Quantities derived from the lattice vectors:
  | Reciprocal lattice vector 1:  0.385573  0.222319  0.000000
  | Reciprocal lattice vector 2: -0.000000  0.445051  0.000000
  | Reciprocal lattice vector 3:  0.000000  0.000000  0.062635
  | Unit cell volume                               :   0.230786E+05  A^3

  Fractional coordinates:
                         L1                L2                L3
       atom_frac         0.03376382        0.06734671        0.02676416  W
       atom_frac         0.16811017        0.13623289        0.04319349  Se
       atom_frac         0.16660760        0.13321594        0.01003924  Se
       atom_frac         0.03466011        0.26818256        0.02674964  W
       atom_frac         0.17372810        0.34045900        0.04283535  Se
       atom_frac         0.16666707        0.33501486        0.00975427  Se
       atom_frac         0.03467866        0.46646023        0.02675172  W
       atom_frac         0.17376943        0.53327644        0.04283820  Se
       atom_frac         0.16666217        0.53165315        0.00975436  Se
       atom_frac         0.03376667        0.66639449        0.02676554  W
       atom_frac         0.16812025        0.73188311        0.04319419  Se
       atom_frac         0.16661052        0.73339180        0.01004002  Se
       atom_frac         0.03333978        0.86665970        0.02676847  W
       atom_frac         0.16694363        0.93347405        0.04334643  Se
       atom_frac         0.16694155        0.93347022        0.01020165  Se
       atom_frac         0.23360092        0.06734794        0.02676522  W
       atom_frac         0.36645922        0.13478788        0.04343217  Se
       atom_frac         0.36729644        0.13378412        0.01026132  Se
       atom_frac         0.23448875        0.26895429        0.02631532  W
       atom_frac         0.36671978        0.34049157        0.04283719  Se
       atom_frac         0.36834688        0.33501418        0.00975375  Se
       atom_frac         0.24233670        0.47115656        0.02571098  W
       atom_frac         0.36665822        0.53334393        0.00811415  Se
       atom_frac         0.23449443        0.66550792        0.02631593  W
       atom_frac         0.36672923        0.72624002        0.04283777  Se
       atom_frac         0.36834674        0.73334015        0.00975369  Se
       atom_frac         0.23360664        0.86623230        0.02676562  W
       atom_frac         0.36646384        0.93168056        0.04343194  Se
       atom_frac         0.36729649        0.93351971        0.01026149  Se
       atom_frac         0.43317588        0.06658208        0.02695569  W
       atom_frac         0.56624878        0.13313000        0.04361678  Se
       atom_frac         0.56684712        0.13343471        0.01042921  Se
       atom_frac         0.43353873        0.26819756        0.02675185  W
       atom_frac         0.56581628        0.33418593        0.04350265  Se
       atom_frac         0.56691746        0.33308432        0.01026825  Se
       atom_frac         0.42882561        0.47116311        0.02571035  W
       atom_frac         0.55949814        0.53327939        0.04283718  Se
       atom_frac         0.56497858        0.53164907        0.00975361  Se
       atom_frac         0.42884152        0.65766863        0.02571013  W
       atom_frac         0.55953654        0.72627383        0.04283490  Se
       atom_frac         0.56498186        0.73333336        0.00975343  Se
       atom_frac         0.43354232        0.86532243        0.02675135  W
       atom_frac         0.56582852        0.93165278        0.04350080  Se
       atom_frac         0.56691643        0.93385053        0.01026641  Se
       atom_frac         0.63315857        0.06630408        0.02701596  W
       atom_frac         0.76687469        0.13312868        0.04361547  Se
       atom_frac         0.76657031        0.13343465        0.01042810  Se
       atom_frac         0.63315635        0.26684461        0.02701719  W
       atom_frac         0.76687384        0.33375521        0.04361694  Se
       atom_frac         0.76656936        0.33315599        0.01042945  Se
       atom_frac         0.63179613        0.46646233        0.02675184  W
       atom_frac         0.76521100        0.53354407        0.04343217  Se
       atom_frac         0.76621343        0.53270410        0.01026136  Se
       atom_frac         0.63103367        0.66550701        0.02631506  W
       atom_frac         0.76376207        0.73188997        0.04319307  Se
       atom_frac         0.76677785        0.73339122        0.01003906  Se
       atom_frac         0.63180970        0.86533650        0.02674921  W
       atom_frac         0.76521958        0.93168908        0.04343009  Se
       atom_frac         0.76622124        0.93352112        0.01025887  Se
       atom_frac         0.83341932        0.06658089        0.02695332  W
       atom_frac         0.96831173        0.13477814        0.04343046  Se
       atom_frac         0.96647968        0.13377721        0.01025906  Se
       atom_frac         0.83369901        0.26684357        0.02701611  W
       atom_frac         0.96835486        0.33417608        0.04350127  Se
       atom_frac         0.96615457        0.33308658        0.01026716  Se
       atom_frac         0.83341837        0.46682583        0.02695574  W
       atom_frac         0.96832192        0.53354167        0.04343226  Se
       atom_frac         0.96648133        0.53270557        0.01026171  Se
       atom_frac         0.83264760        0.66639670        0.02676507  W
       atom_frac         0.96652569        0.73305779        0.04334631  Se
       atom_frac         0.96652908        0.73305947        0.01020159  Se
       atom_frac         0.83264779        0.86623410        0.02676403  W
       atom_frac         0.96652416        0.93347469        0.04334547  Se
       atom_frac         0.96652951        0.93346910        0.01020073  Se

 
  Finished reading input file 'control.in'.
 

------------------------------------------------------------
          Reading geometry description geometry.in.
------------------------------------------------------------
 
  Consistency checks for stacksize environment parameter are next.
 
  | Maximum stacksize for task 0: unlimited
  | Maximum stacksize for task 1: unlimited
  | Maximum stacksize for task 2: unlimited
  | Maximum stacksize for task 3: unlimited
  | Maximum stacksize for task 4: unlimited
  | Maximum stacksize for task 5: unlimited
  | Maximum stacksize for task 6: unlimited
  | Maximum stacksize for task 7: unlimited
  | Maximum stacksize for task 8: unlimited
  | Maximum stacksize for task 9: unlimited
  | Maximum stacksize for task 10: unlimited
  | Maximum stacksize for task 11: unlimited
  | Maximum stacksize for task 12: unlimited
  | Maximum stacksize for task 13: unlimited
  | Maximum stacksize for task 14: unlimited
  | Maximum stacksize for task 15: unlimited
  | Maximum stacksize for task 16: unlimited
  | Maximum stacksize for task 17: unlimited
  | Maximum stacksize for task 18: unlimited
  | Maximum stacksize for task 19: unlimited
  | Maximum stacksize for task 20: unlimited
  | Maximum stacksize for task 21: unlimited
  | Maximum stacksize for task 22: unlimited
  | Maximum stacksize for task 23: unlimited
  | Maximum stacksize for task 24: unlimited
  | Maximum stacksize for task 25: unlimited
  | Maximum stacksize for task 26: unlimited
  | Maximum stacksize for task 27: unlimited
  | Maximum stacksize for task 28: unlimited
  | Maximum stacksize for task 29: unlimited
  | Maximum stacksize for task 30: unlimited
  | Maximum stacksize for task 31: unlimited
  | Maximum stacksize for task 32: unlimited
  | Maximum stacksize for task 33: unlimited
  | Maximum stacksize for task 34: unlimited
  | Maximum stacksize for task 35: unlimited
  | Maximum stacksize for task 36: unlimited
  | Maximum stacksize for task 37: unlimited
  | Maximum stacksize for task 38: unlimited
  | Maximum stacksize for task 39: unlimited
  | Maximum stacksize for task 40: unlimited
  | Maximum stacksize for task 41: unlimited
  | Maximum stacksize for task 42: unlimited
  | Maximum stacksize for task 43: unlimited
  | Maximum stacksize for task 44: unlimited
  | Maximum stacksize for task 45: unlimited
  | Maximum stacksize for task 46: unlimited
  | Maximum stacksize for task 47: unlimited
  | Maximum stacksize for task 48: unlimited
  | Maximum stacksize for task 49: unlimited
  | Maximum stacksize for task 50: unlimited
  | Maximum stacksize for task 51: unlimited
  | Maximum stacksize for task 52: unlimited
  | Maximum stacksize for task 53: unlimited
  | Maximum stacksize for task 54: unlimited
  | Maximum stacksize for task 55: unlimited
  | Maximum stacksize for task 56: unlimited
  | Maximum stacksize for task 57: unlimited
  | Maximum stacksize for task 58: unlimited
  | Maximum stacksize for task 59: unlimited
  | Maximum stacksize for task 60: unlimited
  | Maximum stacksize for task 61: unlimited
  | Maximum stacksize for task 62: unlimited
  | Maximum stacksize for task 63: unlimited
  | Maximum stacksize for task 64: unlimited
  | Maximum stacksize for task 65: unlimited
  | Maximum stacksize for task 66: unlimited
  | Maximum stacksize for task 67: unlimited
  | Maximum stacksize for task 68: unlimited
  | Maximum stacksize for task 69: unlimited
  | Maximum stacksize for task 70: unlimited
  | Maximum stacksize for task 71: unlimited
  | Maximum stacksize for task 72: unlimited
  | Maximum stacksize for task 73: unlimited
  | Maximum stacksize for task 74: unlimited
  | Maximum stacksize for task 75: unlimited
  | Maximum stacksize for task 76: unlimited
  | Maximum stacksize for task 77: unlimited
  | Maximum stacksize for task 78: unlimited
  | Maximum stacksize for task 79: unlimited
  | Maximum stacksize for task 80: unlimited
  | Maximum stacksize for task 81: unlimited
  | Maximum stacksize for task 82: unlimited
  | Maximum stacksize for task 83: unlimited
  | Maximum stacksize for task 84: unlimited
  | Maximum stacksize for task 85: unlimited
  | Maximum stacksize for task 86: unlimited
  | Maximum stacksize for task 87: unlimited
  | Maximum stacksize for task 88: unlimited
  | Maximum stacksize for task 89: unlimited
  | Maximum stacksize for task 90: unlimited
  | Maximum stacksize for task 91: unlimited
  | Maximum stacksize for task 92: unlimited
  | Maximum stacksize for task 93: unlimited
  | Maximum stacksize for task 94: unlimited
  | Maximum stacksize for task 95: unlimited
  | Maximum stacksize for task 96: unlimited
  | Maximum stacksize for task 97: unlimited
  | Maximum stacksize for task 98: unlimited
  | Maximum stacksize for task 99: unlimited
  | Maximum stacksize for task 100: unlimited
  | Maximum stacksize for task 101: unlimited
  | Maximum stacksize for task 102: unlimited
  | Maximum stacksize for task 103: unlimited
  | Maximum stacksize for task 104: unlimited
  | Maximum stacksize for task 105: unlimited
  | Maximum stacksize for task 106: unlimited
  | Maximum stacksize for task 107: unlimited
  | Maximum stacksize for task 108: unlimited
  | Maximum stacksize for task 109: unlimited
  | Maximum stacksize for task 110: unlimited
  | Maximum stacksize for task 111: unlimited
  | Maximum stacksize for task 112: unlimited
  | Maximum stacksize for task 113: unlimited
  | Maximum stacksize for task 114: unlimited
  | Maximum stacksize for task 115: unlimited
  | Maximum stacksize for task 116: unlimited
  | Maximum stacksize for task 117: unlimited
  | Maximum stacksize for task 118: unlimited
  | Maximum stacksize for task 119: unlimited
  | Maximum stacksize for task 120: unlimited
  | Maximum stacksize for task 121: unlimited
  | Maximum stacksize for task 122: unlimited
  | Maximum stacksize for task 123: unlimited
  | Maximum stacksize for task 124: unlimited
  | Maximum stacksize for task 125: unlimited
  | Maximum stacksize for task 126: unlimited
  | Maximum stacksize for task 127: unlimited
  | Maximum stacksize for task 128: unlimited
  | Maximum stacksize for task 129: unlimited
  | Maximum stacksize for task 130: unlimited
  | Maximum stacksize for task 131: unlimited
  | Maximum stacksize for task 132: unlimited
  | Maximum stacksize for task 133: unlimited
  | Maximum stacksize for task 134: unlimited
  | Maximum stacksize for task 135: unlimited
  | Maximum stacksize for task 136: unlimited
  | Maximum stacksize for task 137: unlimited
  | Maximum stacksize for task 138: unlimited
  | Maximum stacksize for task 139: unlimited
  | Maximum stacksize for task 140: unlimited
  | Maximum stacksize for task 141: unlimited
  | Maximum stacksize for task 142: unlimited
  | Maximum stacksize for task 143: unlimited
  | Maximum stacksize for task 144: unlimited
  | Maximum stacksize for task 145: unlimited
  | Maximum stacksize for task 146: unlimited
  | Maximum stacksize for task 147: unlimited
  | Maximum stacksize for task 148: unlimited
  | Maximum stacksize for task 149: unlimited
  | Maximum stacksize for task 150: unlimited
  | Maximum stacksize for task 151: unlimited
  | Maximum stacksize for task 152: unlimited
  | Maximum stacksize for task 153: unlimited
  | Maximum stacksize for task 154: unlimited
  | Maximum stacksize for task 155: unlimited
  | Maximum stacksize for task 156: unlimited
  | Maximum stacksize for task 157: unlimited
  | Maximum stacksize for task 158: unlimited
  | Maximum stacksize for task 159: unlimited
  | Maximum stacksize for task 160: unlimited
  | Maximum stacksize for task 161: unlimited
  | Maximum stacksize for task 162: unlimited
  | Maximum stacksize for task 163: unlimited
  | Maximum stacksize for task 164: unlimited
  | Maximum stacksize for task 165: unlimited
  | Maximum stacksize for task 166: unlimited
  | Maximum stacksize for task 167: unlimited
  | Maximum stacksize for task 168: unlimited
  | Maximum stacksize for task 169: unlimited
  | Maximum stacksize for task 170: unlimited
  | Maximum stacksize for task 171: unlimited
  | Maximum stacksize for task 172: unlimited
  | Maximum stacksize for task 173: unlimited
  | Maximum stacksize for task 174: unlimited
  | Maximum stacksize for task 175: unlimited
  | Maximum stacksize for task 176: unlimited
  | Maximum stacksize for task 177: unlimited
  | Maximum stacksize for task 178: unlimited
  | Maximum stacksize for task 179: unlimited
  | Maximum stacksize for task 180: unlimited
  | Maximum stacksize for task 181: unlimited
  | Maximum stacksize for task 182: unlimited
  | Maximum stacksize for task 183: unlimited
  | Maximum stacksize for task 184: unlimited
  | Maximum stacksize for task 185: unlimited
  | Maximum stacksize for task 186: unlimited
  | Maximum stacksize for task 187: unlimited
  | Maximum stacksize for task 188: unlimited
  | Maximum stacksize for task 189: unlimited
  | Maximum stacksize for task 190: unlimited
  | Maximum stacksize for task 191: unlimited
  | Maximum stacksize for task 192: unlimited
  | Maximum stacksize for task 193: unlimited
  | Maximum stacksize for task 194: unlimited
  | Maximum stacksize for task 195: unlimited
  | Maximum stacksize for task 196: unlimited
  | Maximum stacksize for task 197: unlimited
  | Maximum stacksize for task 198: unlimited
  | Maximum stacksize for task 199: unlimited
  | Maximum stacksize for task 200: unlimited
  | Maximum stacksize for task 201: unlimited
  | Maximum stacksize for task 202: unlimited
  | Maximum stacksize for task 203: unlimited
  | Maximum stacksize for task 204: unlimited
  | Maximum stacksize for task 205: unlimited
  | Maximum stacksize for task 206: unlimited
  | Maximum stacksize for task 207: unlimited
  | Maximum stacksize for task 208: unlimited
  | Maximum stacksize for task 209: unlimited
  | Maximum stacksize for task 210: unlimited
  | Maximum stacksize for task 211: unlimited
  | Maximum stacksize for task 212: unlimited
  | Maximum stacksize for task 213: unlimited
  | Maximum stacksize for task 214: unlimited
  | Maximum stacksize for task 215: unlimited
  | Maximum stacksize for task 216: unlimited
  | Maximum stacksize for task 217: unlimited
  | Maximum stacksize for task 218: unlimited
  | Maximum stacksize for task 219: unlimited
  | Maximum stacksize for task 220: unlimited
  | Maximum stacksize for task 221: unlimited
  | Maximum stacksize for task 222: unlimited
  | Maximum stacksize for task 223: unlimited
  | Maximum stacksize for task 224: unlimited
  | Maximum stacksize for task 225: unlimited
  | Maximum stacksize for task 226: unlimited
  | Maximum stacksize for task 227: unlimited
  | Maximum stacksize for task 228: unlimited
  | Maximum stacksize for task 229: unlimited
  | Maximum stacksize for task 230: unlimited
  | Maximum stacksize for task 231: unlimited
  | Maximum stacksize for task 232: unlimited
  | Maximum stacksize for task 233: unlimited
  | Maximum stacksize for task 234: unlimited
  | Maximum stacksize for task 235: unlimited
  | Maximum stacksize for task 236: unlimited
  | Maximum stacksize for task 237: unlimited
  | Maximum stacksize for task 238: unlimited
  | Maximum stacksize for task 239: unlimited
  | Maximum stacksize for task 240: unlimited
  | Maximum stacksize for task 241: unlimited
  | Maximum stacksize for task 242: unlimited
  | Maximum stacksize for task 243: unlimited
  | Maximum stacksize for task 244: unlimited
  | Maximum stacksize for task 245: unlimited
  | Maximum stacksize for task 246: unlimited
  | Maximum stacksize for task 247: unlimited
  | Maximum stacksize for task 248: unlimited
  | Maximum stacksize for task 249: unlimited
  | Maximum stacksize for task 250: unlimited
  | Maximum stacksize for task 251: unlimited
  | Maximum stacksize for task 252: unlimited
  | Maximum stacksize for task 253: unlimited
  | Maximum stacksize for task 254: unlimited
  | Maximum stacksize for task 255: unlimited
  | Maximum stacksize for task 256: unlimited
  | Maximum stacksize for task 257: unlimited
  | Maximum stacksize for task 258: unlimited
  | Maximum stacksize for task 259: unlimited
  | Maximum stacksize for task 260: unlimited
  | Maximum stacksize for task 261: unlimited
  | Maximum stacksize for task 262: unlimited
  | Maximum stacksize for task 263: unlimited
  | Maximum stacksize for task 264: unlimited
  | Maximum stacksize for task 265: unlimited
  | Maximum stacksize for task 266: unlimited
  | Maximum stacksize for task 267: unlimited
  | Maximum stacksize for task 268: unlimited
  | Maximum stacksize for task 269: unlimited
  | Maximum stacksize for task 270: unlimited
  | Maximum stacksize for task 271: unlimited
  | Maximum stacksize for task 272: unlimited
  | Maximum stacksize for task 273: unlimited
  | Maximum stacksize for task 274: unlimited
  | Maximum stacksize for task 275: unlimited
  | Maximum stacksize for task 276: unlimited
  | Maximum stacksize for task 277: unlimited
  | Maximum stacksize for task 278: unlimited
  | Maximum stacksize for task 279: unlimited
  | Maximum stacksize for task 280: unlimited
  | Maximum stacksize for task 281: unlimited
  | Maximum stacksize for task 282: unlimited
  | Maximum stacksize for task 283: unlimited
  | Maximum stacksize for task 284: unlimited
  | Maximum stacksize for task 285: unlimited
  | Maximum stacksize for task 286: unlimited
  | Maximum stacksize for task 287: unlimited
  | Current stacksize for task 0: unlimited
  | Current stacksize for task 1: unlimited
  | Current stacksize for task 2: unlimited
  | Current stacksize for task 3: unlimited
  | Current stacksize for task 4: unlimited
  | Current stacksize for task 5: unlimited
  | Current stacksize for task 6: unlimited
  | Current stacksize for task 7: unlimited
  | Current stacksize for task 8: unlimited
  | Current stacksize for task 9: unlimited
  | Current stacksize for task 10: unlimited
  | Current stacksize for task 11: unlimited
  | Current stacksize for task 12: unlimited
  | Current stacksize for task 13: unlimited
  | Current stacksize for task 14: unlimited
  | Current stacksize for task 15: unlimited
  | Current stacksize for task 16: unlimited
  | Current stacksize for task 17: unlimited
  | Current stacksize for task 18: unlimited
  | Current stacksize for task 19: unlimited
  | Current stacksize for task 20: unlimited
  | Current stacksize for task 21: unlimited
  | Current stacksize for task 22: unlimited
  | Current stacksize for task 23: unlimited
  | Current stacksize for task 24: unlimited
  | Current stacksize for task 25: unlimited
  | Current stacksize for task 26: unlimited
  | Current stacksize for task 27: unlimited
  | Current stacksize for task 28: unlimited
  | Current stacksize for task 29: unlimited
  | Current stacksize for task 30: unlimited
  | Current stacksize for task 31: unlimited
  | Current stacksize for task 32: unlimited
  | Current stacksize for task 33: unlimited
  | Current stacksize for task 34: unlimited
  | Current stacksize for task 35: unlimited
  | Current stacksize for task 36: unlimited
  | Current stacksize for task 37: unlimited
  | Current stacksize for task 38: unlimited
  | Current stacksize for task 39: unlimited
  | Current stacksize for task 40: unlimited
  | Current stacksize for task 41: unlimited
  | Current stacksize for task 42: unlimited
  | Current stacksize for task 43: unlimited
  | Current stacksize for task 44: unlimited
  | Current stacksize for task 45: unlimited
  | Current stacksize for task 46: unlimited
  | Current stacksize for task 47: unlimited
  | Current stacksize for task 48: unlimited
  | Current stacksize for task 49: unlimited
  | Current stacksize for task 50: unlimited
  | Current stacksize for task 51: unlimited
  | Current stacksize for task 52: unlimited
  | Current stacksize for task 53: unlimited
  | Current stacksize for task 54: unlimited
  | Current stacksize for task 55: unlimited
  | Current stacksize for task 56: unlimited
  | Current stacksize for task 57: unlimited
  | Current stacksize for task 58: unlimited
  | Current stacksize for task 59: unlimited
  | Current stacksize for task 60: unlimited
  | Current stacksize for task 61: unlimited
  | Current stacksize for task 62: unlimited
  | Current stacksize for task 63: unlimited
  | Current stacksize for task 64: unlimited
  | Current stacksize for task 65: unlimited
  | Current stacksize for task 66: unlimited
  | Current stacksize for task 67: unlimited
  | Current stacksize for task 68: unlimited
  | Current stacksize for task 69: unlimited
  | Current stacksize for task 70: unlimited
  | Current stacksize for task 71: unlimited
  | Current stacksize for task 72: unlimited
  | Current stacksize for task 73: unlimited
  | Current stacksize for task 74: unlimited
  | Current stacksize for task 75: unlimited
  | Current stacksize for task 76: unlimited
  | Current stacksize for task 77: unlimited
  | Current stacksize for task 78: unlimited
  | Current stacksize for task 79: unlimited
  | Current stacksize for task 80: unlimited
  | Current stacksize for task 81: unlimited
  | Current stacksize for task 82: unlimited
  | Current stacksize for task 83: unlimited
  | Current stacksize for task 84: unlimited
  | Current stacksize for task 85: unlimited
  | Current stacksize for task 86: unlimited
  | Current stacksize for task 87: unlimited
  | Current stacksize for task 88: unlimited
  | Current stacksize for task 89: unlimited
  | Current stacksize for task 90: unlimited
  | Current stacksize for task 91: unlimited
  | Current stacksize for task 92: unlimited
  | Current stacksize for task 93: unlimited
  | Current stacksize for task 94: unlimited
  | Current stacksize for task 95: unlimited
  | Current stacksize for task 96: unlimited
  | Current stacksize for task 97: unlimited
  | Current stacksize for task 98: unlimited
  | Current stacksize for task 99: unlimited
  | Current stacksize for task 100: unlimited
  | Current stacksize for task 101: unlimited
  | Current stacksize for task 102: unlimited
  | Current stacksize for task 103: unlimited
  | Current stacksize for task 104: unlimited
  | Current stacksize for task 105: unlimited
  | Current stacksize for task 106: unlimited
  | Current stacksize for task 107: unlimited
  | Current stacksize for task 108: unlimited
  | Current stacksize for task 109: unlimited
  | Current stacksize for task 110: unlimited
  | Current stacksize for task 111: unlimited
  | Current stacksize for task 112: unlimited
  | Current stacksize for task 113: unlimited
  | Current stacksize for task 114: unlimited
  | Current stacksize for task 115: unlimited
  | Current stacksize for task 116: unlimited
  | Current stacksize for task 117: unlimited
  | Current stacksize for task 118: unlimited
  | Current stacksize for task 119: unlimited
  | Current stacksize for task 120: unlimited
  | Current stacksize for task 121: unlimited
  | Current stacksize for task 122: unlimited
  | Current stacksize for task 123: unlimited
  | Current stacksize for task 124: unlimited
  | Current stacksize for task 125: unlimited
  | Current stacksize for task 126: unlimited
  | Current stacksize for task 127: unlimited
  | Current stacksize for task 128: unlimited
  | Current stacksize for task 129: unlimited
  | Current stacksize for task 130: unlimited
  | Current stacksize for task 131: unlimited
  | Current stacksize for task 132: unlimited
  | Current stacksize for task 133: unlimited
  | Current stacksize for task 134: unlimited
  | Current stacksize for task 135: unlimited
  | Current stacksize for task 136: unlimited
  | Current stacksize for task 137: unlimited
  | Current stacksize for task 138: unlimited
  | Current stacksize for task 139: unlimited
  | Current stacksize for task 140: unlimited
  | Current stacksize for task 141: unlimited
  | Current stacksize for task 142: unlimited
  | Current stacksize for task 143: unlimited
  | Current stacksize for task 144: unlimited
  | Current stacksize for task 145: unlimited
  | Current stacksize for task 146: unlimited
  | Current stacksize for task 147: unlimited
  | Current stacksize for task 148: unlimited
  | Current stacksize for task 149: unlimited
  | Current stacksize for task 150: unlimited
  | Current stacksize for task 151: unlimited
  | Current stacksize for task 152: unlimited
  | Current stacksize for task 153: unlimited
  | Current stacksize for task 154: unlimited
  | Current stacksize for task 155: unlimited
  | Current stacksize for task 156: unlimited
  | Current stacksize for task 157: unlimited
  | Current stacksize for task 158: unlimited
  | Current stacksize for task 159: unlimited
  | Current stacksize for task 160: unlimited
  | Current stacksize for task 161: unlimited
  | Current stacksize for task 162: unlimited
  | Current stacksize for task 163: unlimited
  | Current stacksize for task 164: unlimited
  | Current stacksize for task 165: unlimited
  | Current stacksize for task 166: unlimited
  | Current stacksize for task 167: unlimited
  | Current stacksize for task 168: unlimited
  | Current stacksize for task 169: unlimited
  | Current stacksize for task 170: unlimited
  | Current stacksize for task 171: unlimited
  | Current stacksize for task 172: unlimited
  | Current stacksize for task 173: unlimited
  | Current stacksize for task 174: unlimited
  | Current stacksize for task 175: unlimited
  | Current stacksize for task 176: unlimited
  | Current stacksize for task 177: unlimited
  | Current stacksize for task 178: unlimited
  | Current stacksize for task 179: unlimited
  | Current stacksize for task 180: unlimited
  | Current stacksize for task 181: unlimited
[...]
  | writing   projected DOS (shifted by the chemical potential) for species W to file atom_proj_dos_tetrahedron_W0024.dat.
  | writing   projected DOS (raw data) for species W to file atom_proj_dos_tetrahedron_W0024_raw.dat.
  | writing   projected DOS (shifted by the chemical potential) for species Se to file atom_proj_dos_tetrahedron_Se0025.dat.
  | writing   projected DOS (raw data) for species Se to file atom_proj_dos_tetrahedron_Se0025_raw.dat.
  | writing   projected DOS (shifted by the chemical potential) for species Se to file atom_proj_dos_tetrahedron_Se0026.dat.
  | writing   projected DOS (raw data) for species Se to file atom_proj_dos_tetrahedron_Se0026_raw.dat.
  | writing   projected DOS (shifted by the chemical potential) for species W to file atom_proj_dos_tetrahedron_W0027.dat.
  | writing   projected DOS (raw data) for species W to file atom_proj_dos_tetrahedron_W0027_raw.dat.
  | writing   projected DOS (shifted by the chemical potential) for species Se to file atom_proj_dos_tetrahedron_Se0028.dat.
  | writing   projected DOS (raw data) for species Se to file atom_proj_dos_tetrahedron_Se0028_raw.dat.
  | writing   projected DOS (shifted by the chemical potential) for species Se to file atom_proj_dos_tetrahedron_Se0029.dat.
  | writing   projected DOS (raw data) for species Se to file atom_proj_dos_tetrahedron_Se0029_raw.dat.
  | writing   projected DOS (shifted by the chemical potential) for species W to file atom_proj_dos_tetrahedron_W0030.dat.
  | writing   projected DOS (raw data) for species W to file atom_proj_dos_tetrahedron_W0030_raw.dat.
  | writing   projected DOS (shifted by the chemical potential) for species Se to file atom_proj_dos_tetrahedron_Se0031.dat.
  | writing   projected DOS (raw data) for species Se to file atom_proj_dos_tetrahedron_Se0031_raw.dat.
  | writing   projected DOS (shifted by the chemical potential) for species Se to file atom_proj_dos_tetrahedron_Se0032.dat.
  | writing   projected DOS (raw data) for species Se to file atom_proj_dos_tetrahedron_Se0032_raw.dat.
  | writing   projected DOS (shifted by the chemical potential) for species W to file atom_proj_dos_tetrahedron_W0033.dat.
  | writing   projected DOS (raw data) for species W to file atom_proj_dos_tetrahedron_W0033_raw.dat.
  | writing   projected DOS (shifted by the chemical potential) for species Se to file atom_proj_dos_tetrahedron_Se0034.dat.
  | writing   projected DOS (raw data) for species Se to file atom_proj_dos_tetrahedron_Se0034_raw.dat.
  | writing   projected DOS (shifted by the chemical potential) for species Se to file atom_proj_dos_tetrahedron_Se0035.dat.
  | writing   projected DOS (raw data) for species Se to file atom_proj_dos_tetrahedron_Se0035_raw.dat.
  | writing   projected DOS (shifted by the chemical potential) for species W to file atom_proj_dos_tetrahedron_W0036.dat.
  | writing   projected DOS (raw data) for species W to file atom_proj_dos_tetrahedron_W0036_raw.dat.
  | writing   projected DOS (shifted by the chemical potential) for species Se to file atom_proj_dos_tetrahedron_Se0037.dat.
  | writing   projected DOS (raw data) for species Se to file atom_proj_dos_tetrahedron_Se0037_raw.dat.
  | writing   projected DOS (shifted by the chemical potential) for species Se to file atom_proj_dos_tetrahedron_Se0038.dat.
  | writing   projected DOS (raw data) for species Se to file atom_proj_dos_tetrahedron_Se0038_raw.dat.
  | writing   projected DOS (shifted by the chemical potential) for species W to file atom_proj_dos_tetrahedron_W0039.dat.
  | writing   projected DOS (raw data) for species W to file atom_proj_dos_tetrahedron_W0039_raw.dat.
  | writing   projected DOS (shifted by the chemical potential) for species Se to file atom_proj_dos_tetrahedron_Se0040.dat.
  | writing   projected DOS (raw data) for species Se to file atom_proj_dos_tetrahedron_Se0040_raw.dat.
  | writing   projected DOS (shifted by the chemical potential) for species Se to file atom_proj_dos_tetrahedron_Se0041.dat.
  | writing   projected DOS (raw data) for species Se to file atom_proj_dos_tetrahedron_Se0041_raw.dat.
  | writing   projected DOS (shifted by the chemical potential) for species W to file atom_proj_dos_tetrahedron_W0042.dat.
  | writing   projected DOS (raw data) for species W to file atom_proj_dos_tetrahedron_W0042_raw.dat.
  | writing   projected DOS (shifted by the chemical potential) for species Se to file atom_proj_dos_tetrahedron_Se0043.dat.
  | writing   projected DOS (raw data) for species Se to file atom_proj_dos_tetrahedron_Se0043_raw.dat.
  | writing   projected DOS (shifted by the chemical potential) for species Se to file atom_proj_dos_tetrahedron_Se0044.dat.
  | writing   projected DOS (raw data) for species Se to file atom_proj_dos_tetrahedron_Se0044_raw.dat.
  | writing   projected DOS (shifted by the chemical potential) for species W to file atom_proj_dos_tetrahedron_W0045.dat.
  | writing   projected DOS (raw data) for species W to file atom_proj_dos_tetrahedron_W0045_raw.dat.
  | writing   projected DOS (shifted by the chemical potential) for species Se to file atom_proj_dos_tetrahedron_Se0046.dat.
  | writing   projected DOS (raw data) for species Se to file atom_proj_dos_tetrahedron_Se0046_raw.dat.
  | writing   projected DOS (shifted by the chemical potential) for species Se to file atom_proj_dos_tetrahedron_Se0047.dat.
  | writing   projected DOS (raw data) for species Se to file atom_proj_dos_tetrahedron_Se0047_raw.dat.
  | writing   projected DOS (shifted by the chemical potential) for species W to file atom_proj_dos_tetrahedron_W0048.dat.
  | writing   projected DOS (raw data) for species W to file atom_proj_dos_tetrahedron_W0048_raw.dat.
  | writing   projected DOS (shifted by the chemical potential) for species Se to file atom_proj_dos_tetrahedron_Se0049.dat.
  | writing   projected DOS (raw data) for species Se to file atom_proj_dos_tetrahedron_Se0049_raw.dat.
  | writing   projected DOS (shifted by the chemical potential) for species Se to file atom_proj_dos_tetrahedron_Se0050.dat.
  | writing   projected DOS (raw data) for species Se to file atom_proj_dos_tetrahedron_Se0050_raw.dat.
  | writing   projected DOS (shifted by the chemical potential) for species W to file atom_proj_dos_tetrahedron_W0051.dat.
  | writing   projected DOS (raw data) for species W to file atom_proj_dos_tetrahedron_W0051_raw.dat.
  | writing   projected DOS (shifted by the chemical potential) for species Se to file atom_proj_dos_tetrahedron_Se0052.dat.
  | writing   projected DOS (raw data) for species Se to file atom_proj_dos_tetrahedron_Se0052_raw.dat.
  | writing   projected DOS (shifted by the chemical potential) for species Se to file atom_proj_dos_tetrahedron_Se0053.dat.
  | writing   projected DOS (raw data) for species Se to file atom_proj_dos_tetrahedron_Se0053_raw.dat.
  | writing   projected DOS (shifted by the chemical potential) for species W to file atom_proj_dos_tetrahedron_W0054.dat.
  | writing   projected DOS (raw data) for species W to file atom_proj_dos_tetrahedron_W0054_raw.dat.
  | writing   projected DOS (shifted by the chemical potential) for species Se to file atom_proj_dos_tetrahedron_Se0055.dat.
  | writing   projected DOS (raw data) for species Se to file atom_proj_dos_tetrahedron_Se0055_raw.dat.
  | writing   projected DOS (shifted by the chemical potential) for species Se to file atom_proj_dos_tetrahedron_Se0056.dat.
  | writing   projected DOS (raw data) for species Se to file atom_proj_dos_tetrahedron_Se0056_raw.dat.
  | writing   projected DOS (shifted by the chemical potential) for species W to file atom_proj_dos_tetrahedron_W0057.dat.
  | writing   projected DOS (raw data) for species W to file atom_proj_dos_tetrahedron_W0057_raw.dat.
  | writing   projected DOS (shifted by the chemical potential) for species Se to file atom_proj_dos_tetrahedron_Se0058.dat.
  | writing   projected DOS (raw data) for species Se to file atom_proj_dos_tetrahedron_Se0058_raw.dat.
  | writing   projected DOS (shifted by the chemical potential) for species Se to file atom_proj_dos_tetrahedron_Se0059.dat.
  | writing   projected DOS (raw data) for species Se to file atom_proj_dos_tetrahedron_Se0059_raw.dat.
  | writing   projected DOS (shifted by the chemical potential) for species W to file atom_proj_dos_tetrahedron_W0060.dat.
  | writing   projected DOS (raw data) for species W to file atom_proj_dos_tetrahedron_W0060_raw.dat.
  | writing   projected DOS (shifted by the chemical potential) for species Se to file atom_proj_dos_tetrahedron_Se0061.dat.
  | writing   projected DOS (raw data) for species Se to file atom_proj_dos_tetrahedron_Se0061_raw.dat.
  | writing   projected DOS (shifted by the chemical potential) for species Se to file atom_proj_dos_tetrahedron_Se0062.dat.
  | writing   projected DOS (raw data) for species Se to file atom_proj_dos_tetrahedron_Se0062_raw.dat.
  | writing   projected DOS (shifted by the chemical potential) for species W to file atom_proj_dos_tetrahedron_W0063.dat.
  | writing   projected DOS (raw data) for species W to file atom_proj_dos_tetrahedron_W0063_raw.dat.
  | writing   projected DOS (shifted by the chemical potential) for species Se to file atom_proj_dos_tetrahedron_Se0064.dat.
  | writing   projected DOS (raw data) for species Se to file atom_proj_dos_tetrahedron_Se0064_raw.dat.
  | writing   projected DOS (shifted by the chemical potential) for species Se to file atom_proj_dos_tetrahedron_Se0065.dat.
  | writing   projected DOS (raw data) for species Se to file atom_proj_dos_tetrahedron_Se0065_raw.dat.
  | writing   projected DOS (shifted by the chemical potential) for species W to file atom_proj_dos_tetrahedron_W0066.dat.
  | writing   projected DOS (raw data) for species W to file atom_proj_dos_tetrahedron_W0066_raw.dat.
  | writing   projected DOS (shifted by the chemical potential) for species Se to file atom_proj_dos_tetrahedron_Se0067.dat.
  | writing   projected DOS (raw data) for species Se to file atom_proj_dos_tetrahedron_Se0067_raw.dat.
  | writing   projected DOS (shifted by the chemical potential) for species Se to file atom_proj_dos_tetrahedron_Se0068.dat.
  | writing   projected DOS (raw data) for species Se to file atom_proj_dos_tetrahedron_Se0068_raw.dat.
  | writing   projected DOS (shifted by the chemical potential) for species W to file atom_proj_dos_tetrahedron_W0069.dat.
  | writing   projected DOS (raw data) for species W to file atom_proj_dos_tetrahedron_W0069_raw.dat.
  | writing   projected DOS (shifted by the chemical potential) for species Se to file atom_proj_dos_tetrahedron_Se0070.dat.
  | writing   projected DOS (raw data) for species Se to file atom_proj_dos_tetrahedron_Se0070_raw.dat.
  | writing   projected DOS (shifted by the chemical potential) for species Se to file atom_proj_dos_tetrahedron_Se0071.dat.
  | writing   projected DOS (raw data) for species Se to file atom_proj_dos_tetrahedron_Se0071_raw.dat.
  | writing   projected DOS (shifted by the chemical potential) for species W to file atom_proj_dos_tetrahedron_W0072.dat.
  | writing   projected DOS (raw data) for species W to file atom_proj_dos_tetrahedron_W0072_raw.dat.
  | writing   projected DOS (shifted by the chemical potential) for species Se to file atom_proj_dos_tetrahedron_Se0073.dat.
  | writing   projected DOS (raw data) for species Se to file atom_proj_dos_tetrahedron_Se0073_raw.dat.
  | writing   projected DOS (shifted by the chemical potential) for species Se to file atom_proj_dos_tetrahedron_Se0074.dat.
  | writing   projected DOS (raw data) for species Se to file atom_proj_dos_tetrahedron_Se0074_raw.dat.

  Mulliken analysis                                       :  max(cpu_time)    wall_clock(cpu1)
  | Time for Mulliken analysis                            :          1.474               1.616
  | Total time for Mulliken analysis                      :          1.474               1.616
------------------------------------------------------------

------------------------------------------------------------------------------
  Final output of selected total energy values:

  The following output summarizes some interesting total energy values
  at the end of a run (AFTER all relaxation, molecular dynamics, etc.).

  | Total energy of the DFT / Hartree-Fock s.c.f. calculation      :      -14578272.270931007 eV
  | Final zero-broadening corrected energy (caution - metals only) :      -14578272.270931007 eV
  | For reference only, the value of 1 Hartree used in FHI-aims is :             27.211384500 eV
  | For reference only, the overall average (free atom contribution
  | + realspace contribution) of the electrostatic potential after
  | s.c.f. convergence is                                          :             -1.360132931 eV

  Before relying on these values, please be sure to understand exactly which
  total energy value is referred to by a given number. Different objects may
  all carry the same name 'total energy'. Definitions:

  Total energy of the DFT / Hartree-Fock s.c.f. calculation:
  | Note that this energy does not include ANY quantities calculated after the
  | s.c.f. cycle, in particular not ANY RPA, MP2, etc. many-body perturbation terms.

  Final zero-broadening corrected energy:
  | For metallic systems only, a broadening of the occupation numbers at the Fermi
  | level can be extrapolated back to zero broadening by an electron-gas inspired
  | formula. For all systems that are not real metals, this value can be
  | meaningless and should be avoided.

------------------------------------------------------------------------------
  Methods described in the following list of references were used in this FHI-aims run.
  If you publish the results, please make sure to cite these reference if they apply.
  FHI-aims is an academic code, and for our developers (often, Ph.D. students
  and postdocs), scientific credit in the community is essential.
  Thank you for helping us!

  For any use of FHI-aims, please cite:

    Volker Blum, Ralf Gehrke, Felix Hanke, Paula Havu, Ville Havu,
    Xinguo Ren, Karsten Reuter, and Matthias Scheffler
    'Ab initio molecular simulations with numeric atom-centered orbitals'
    Computer Physics Communications 180, 2175-2196 (2009)
    http://dx.doi.org/10.1016/j.cpc.2009.06.022


  For Hartree-Fock, hybrid functionals, or many-body perturbation theory used in your run, please cite:

    Xinguo Ren, Patrick Rinke, Volker Blum, Juergen Wieferink, Alex Tkatchenko,
    Andrea Sanfilippo, Karsten Reuter, and Matthias Scheffler,
    'Resolution-of-identity approach to Hartree-Fock, hybrid density functionals,
    RPA, MP2, and GW with numeric atom-centered orbital basis functions'
    New Journal of Physics 14, 053020 (2012).
    http://dx.doi.org/10.1088/1367-2630/14/5/053020


  The provided symmetry information was generated with SPGlib:

    Atsushi Togo, Yusuke Seto, Dimitar Pashov
    SPGlib 1.7.3 obtained from http://spglib.sourceforge.net
    Copyright (C) 2008 Atsushi Togo


  The ELSI infrastructure was used in your run to solve the Kohn-Sham electronic structure.
  Please check out http://elsi-interchange.org to learn more.
  If scalability is important for your project, please acknowledge ELSI by citing:

    V. W-z. Yu, F. Corsetti, A. Garcia, W. P. Huhn, M. Jacquelin, W. Jia,
    B. Lange, L. Lin, J. Lu, W. Mi, A. Seifitokaldani, A. Vazquez-Mayagoitia,
    C. Yang, H. Yang, and V. Blum
    'ELSI: A unified software interface for Kohn-Sham electronic structure solvers'
    Computer Physics Communications 222, 267-285 (2018).
    http://dx.doi.org/10.1016/j.cpc.2017.09.007


  For the real-space grid partitioning and parallelization used in this calculation, please cite:

    Ville Havu, Volker Blum, Paula Havu, and Matthias Scheffler,
    'Efficient O(N) integration for all-electron electronic structure calculation'
    'using numerically tabulated basis functions'
    Journal of Computational Physics 228, 8367-8379 (2009).
    http://dx.doi.org/10.1016/j.jcp.2009.08.008


  The high-level electronic structure method used in your calculation
  employed our efficient localized resolution of identity for the Coulomb operator.
  Some calculations, especially large-scale hybrid density functional theory,
  are only possible thanks to this development. For this feature, please cite:

    Arvid Ihrig, Juergen Wieferink, Igor Ying Zhang, Matti Ropo, Xinguo Ren,
    Patrick Rinke, Matthias Scheffler, and Volker Blum,
    'Accurate localized resolution of identity approach for linear-scaling
    hybrid density functionals and for many-body perturbation theory'
    New Journal of Physics 117, 093020 (2015).
    http://dx.doi.org/10.1088/1367-2630/17/9/093020

  Of course, there are many other important community references, e.g., those cited in the
  above references. Our list is limited to references that describe implementations in the
  FHI-aims code. The reason is purely practical (length of this list) - please credit others as well.

------------------------------------------------------------
          Leaving FHI-aims.
          Date     :  20220119, Time     :  132727.183

          Computational steps:
          | Number of self-consistency cycles          :           34
          | Number of SCF (re)initializations          :            1

          Detailed time accounting                     :  max(cpu_time)    wall_clock(cpu1)
          | Total time                                  :     4993.638 s        4993.926 s
          | Preparation time                            :        1.017 s           1.017 s
          | Boundary condition initalization            :        0.743 s           0.743 s
          | Grid partitioning                           :        0.918 s           0.920 s
          | Preloading free-atom quantities on grid     :        0.355 s           0.353 s
          | Free-atom superposition energy              :        0.037 s           0.037 s
          | Total time for integrations                 :       33.112 s          33.111 s
          | Product basis setup: Total time             :      907.016 s         907.028 s
          | Total time evaluating exchange matrix       :     3773.535 s        3772.886 s
          | Total time for solution of K.-S. equations  :      120.696 s         120.697 s
          | Total time for density & force components   :      101.279 s         101.283 s
          | Total time for mixing                       :        0.324 s           0.192 s
          | Total time for Hartree multipole update     :        0.402 s           0.404 s
          | Total time for Hartree multipole sum        :       44.381 s          44.382 s
          | Total time for total energy evaluation      :        0.059 s           0.056 s
          | Total time NSC force correction             :        4.091 s           4.091 s
          | Total time for scaled ZORA corrections      :        0.000 s           0.000 s
          | Total time for vdW correction               :        3.547 s           3.550 s
          | Total time for Mulliken analysis            :        1.474 s           1.616 s

          Partial memory accounting:
          | Residual value for overall tracked memory usage across tasks:     0.000000 MB (should be 0.000000 MB)
          | Peak values for overall tracked memory usage:
          |   Minimum:      559.169 MB (on task 176 after allocating d_wave)
          |   Maximum:     1920.302 MB (on task   0 after allocating d_wave)
          |   Average:      859.313 MB
          | Largest tracked array allocation:
          |   Minimum:      131.973 MB (d_aux_mat on task  88)
          |   Maximum:      232.774 MB (ovlp3fn for atom on task 183)
          |   Average:      176.225 MB
          Note:  These values currently only include a subset of arrays which are explicitly tracked.
          The "true" memory usage will be greater.

          Have a nice day.
------------------------------------------------------------
