------------------------------------------------------------
          Invoking FHI-aims ...

          When using FHI-aims, please cite the following reference:

            Volker Blum, Ralf Gehrke, Felix Hanke, Paula Havu,
            Ville Havu, Xinguo Ren, Karsten Reuter, and Matthias Scheffler,
            'Ab Initio Molecular Simulations with Numeric Atom-Centered Orbitals',
            Computer Physics Communications 180, 2175-2196 (2009)

          In addition, many other developments in FHI-aims are likely important for
          your particular application. A partial list of references is given at the end of
          this file. Thank you for giving credit to the authors of these developments.

          For any questions about FHI-aims, please visit our slack channel at

            https://fhi-aims.slack.com

          and our main development and support site at

            https://aims-git.rz-berlin.mpg.de .

          The latter site, in particular, has a wiki to collect information, as well
          as an issue tracker to log discussions, suggest improvements, and report issues
          or bugs. https://aims-git.rz-berlin.mpg.de is also the main development site
          of the project and all new and updated code versions can be obtained there.
          Please send an email to aims-coordinators@fhi-berlin.mpg.de and we will add
          you to these sites. They are for you and everyone is welcome there.

------------------------------------------------------------



  Date     :  20220203, Time     :  091836.525
  Time zero on CPU 1             :   0.352874000000000E+00  s.
  Internal wall clock time zero  :           413111916.525  s.

  FHI-aims created a unique identifier for this run for later identification
  aims_uuid : 4C3CFF15-F71F-4D3D-AE37-A3149761A28A

  Build configuration of the current instance of FHI-aims
  -------------------------------------------------------
  FHI-aims version      : 211206
  Commit number         : 71311c09c
  CMake host system     : Linux-4.12.14-122.88-default
  CMake version         : 3.22.0
  Fortran compiler      : /mpcdf/soft/SLE_12/packages/x86_64/intel_parallel_studio/2019.5/compilers_and_libraries_2019.5.281/linux/mpi/intel64/bin/mpiifort (Intel) version 19.0.5.20190815
  Fortran compiler flags: -O0 -ip -fp-model precise -check bounds -check uninit -check pointers -traceback -g -fpe0
  C compiler            : /mpcdf/soft/SLE_12/packages/x86_64/intel/19.0.5/bin/icc (Intel) version 19.0.5.20190815
  C compiler flags      : -O0 -g -ip -fp-model precise -std=gnu99
  Using MPI
  Using ScaLAPACK
  Using LibXC
  Using i-PI
  Using RLSY
  Linking against: /mpcdf/soft/SLE_12/packages/x86_64/intel_parallel_studio/2019.5/mkl/lib/intel64/libmkl_intel_lp64.so
                   /mpcdf/soft/SLE_12/packages/x86_64/intel_parallel_studio/2019.5/mkl/lib/intel64/libmkl_sequential.so
                   /mpcdf/soft/SLE_12/packages/x86_64/intel_parallel_studio/2019.5/mkl/lib/intel64/libmkl_core.so
                   /mpcdf/soft/SLE_12/packages/x86_64/intel_parallel_studio/2019.5/mkl/lib/intel64/libmkl_blacs_intelmpi_lp64.so
                   /mpcdf/soft/SLE_12/packages/x86_64/intel_parallel_studio/2019.5/mkl/lib/intel64/libmkl_scalapack_lp64.so

  Using      160 parallel tasks.
  Task        0 on host co2280 reporting.
  Task        1 on host co2280 reporting.
  Task        2 on host co2280 reporting.
  Task        3 on host co2280 reporting.
  Task        4 on host co2280 reporting.
  Task        5 on host co2280 reporting.
  Task        6 on host co2280 reporting.
  Task        7 on host co2280 reporting.
  Task        8 on host co2280 reporting.
  Task        9 on host co2280 reporting.
  Task       10 on host co2280 reporting.
  Task       11 on host co2280 reporting.
  Task       12 on host co2280 reporting.
  Task       13 on host co2280 reporting.
  Task       14 on host co2280 reporting.
  Task       15 on host co2280 reporting.
  Task       16 on host co2280 reporting.
  Task       17 on host co2280 reporting.
  Task       18 on host co2280 reporting.
  Task       19 on host co2280 reporting.
  Task       20 on host co2280 reporting.
  Task       21 on host co2280 reporting.
  Task       22 on host co2280 reporting.
  Task       23 on host co2280 reporting.
  Task       24 on host co2280 reporting.
  Task       25 on host co2280 reporting.
  Task       26 on host co2280 reporting.
  Task       27 on host co2280 reporting.
  Task       28 on host co2280 reporting.
  Task       29 on host co2280 reporting.
  Task       30 on host co2280 reporting.
  Task       31 on host co2280 reporting.
  Task       32 on host co2280 reporting.
  Task       33 on host co2280 reporting.
  Task       34 on host co2280 reporting.
  Task       35 on host co2280 reporting.
  Task       36 on host co2280 reporting.
  Task       37 on host co2280 reporting.
  Task       38 on host co2280 reporting.
  Task       39 on host co2280 reporting.
  Task       40 on host co2283 reporting.
  Task       41 on host co2283 reporting.
  Task       42 on host co2283 reporting.
  Task       43 on host co2283 reporting.
  Task       44 on host co2283 reporting.
  Task       45 on host co2283 reporting.
  Task       46 on host co2283 reporting.
  Task       47 on host co2283 reporting.
  Task       48 on host co2283 reporting.
  Task       49 on host co2283 reporting.
  Task       50 on host co2283 reporting.
  Task       51 on host co2283 reporting.
  Task       52 on host co2283 reporting.
  Task       53 on host co2283 reporting.
  Task       54 on host co2283 reporting.
  Task       55 on host co2283 reporting.
  Task       56 on host co2283 reporting.
  Task       57 on host co2283 reporting.
  Task       58 on host co2283 reporting.
  Task       59 on host co2283 reporting.
  Task       60 on host co2283 reporting.
  Task       61 on host co2283 reporting.
  Task       62 on host co2283 reporting.
  Task       63 on host co2283 reporting.
  Task       64 on host co2283 reporting.
  Task       65 on host co2283 reporting.
  Task       66 on host co2283 reporting.
  Task       67 on host co2283 reporting.
  Task       68 on host co2283 reporting.
  Task       69 on host co2283 reporting.
  Task       70 on host co2283 reporting.
  Task       71 on host co2283 reporting.
  Task       72 on host co2283 reporting.
  Task       73 on host co2283 reporting.
  Task       74 on host co2283 reporting.
  Task       75 on host co2283 reporting.
  Task       76 on host co2283 reporting.
  Task       77 on host co2283 reporting.
  Task       78 on host co2283 reporting.
  Task       79 on host co2283 reporting.
  Task       80 on host co2286 reporting.
  Task       81 on host co2286 reporting.
  Task       82 on host co2286 reporting.
  Task       83 on host co2286 reporting.
  Task       84 on host co2286 reporting.
  Task       85 on host co2286 reporting.
  Task       86 on host co2286 reporting.
  Task       87 on host co2286 reporting.
  Task       88 on host co2286 reporting.
  Task       89 on host co2286 reporting.
  Task       90 on host co2286 reporting.
  Task       91 on host co2286 reporting.
  Task       92 on host co2286 reporting.
  Task       93 on host co2286 reporting.
  Task       94 on host co2286 reporting.
  Task       95 on host co2286 reporting.
  Task       96 on host co2286 reporting.
  Task       97 on host co2286 reporting.
  Task       98 on host co2286 reporting.
  Task       99 on host co2286 reporting.
  Task      100 on host co2286 reporting.
  Task      101 on host co2286 reporting.
  Task      102 on host co2286 reporting.
  Task      103 on host co2286 reporting.
  Task      104 on host co2286 reporting.
  Task      105 on host co2286 reporting.
  Task      106 on host co2286 reporting.
  Task      107 on host co2286 reporting.
  Task      108 on host co2286 reporting.
  Task      109 on host co2286 reporting.
  Task      110 on host co2286 reporting.
  Task      111 on host co2286 reporting.
  Task      112 on host co2286 reporting.
  Task      113 on host co2286 reporting.
  Task      114 on host co2286 reporting.
  Task      115 on host co2286 reporting.
  Task      116 on host co2286 reporting.
  Task      117 on host co2286 reporting.
  Task      118 on host co2286 reporting.
  Task      119 on host co2286 reporting.
  Task      120 on host co2289 reporting.
  Task      121 on host co2289 reporting.
  Task      122 on host co2289 reporting.
  Task      123 on host co2289 reporting.
  Task      124 on host co2289 reporting.
  Task      125 on host co2289 reporting.
  Task      126 on host co2289 reporting.
  Task      127 on host co2289 reporting.
  Task      128 on host co2289 reporting.
  Task      129 on host co2289 reporting.
  Task      130 on host co2289 reporting.
  Task      131 on host co2289 reporting.
  Task      132 on host co2289 reporting.
  Task      133 on host co2289 reporting.
  Task      134 on host co2289 reporting.
  Task      135 on host co2289 reporting.
  Task      136 on host co2289 reporting.
  Task      137 on host co2289 reporting.
  Task      138 on host co2289 reporting.
  Task      139 on host co2289 reporting.
  Task      140 on host co2289 reporting.
  Task      141 on host co2289 reporting.
  Task      142 on host co2289 reporting.
  Task      143 on host co2289 reporting.
  Task      144 on host co2289 reporting.
  Task      145 on host co2289 reporting.
  Task      146 on host co2289 reporting.
  Task      147 on host co2289 reporting.
  Task      148 on host co2289 reporting.
  Task      149 on host co2289 reporting.
  Task      150 on host co2289 reporting.
  Task      151 on host co2289 reporting.
  Task      152 on host co2289 reporting.
  Task      153 on host co2289 reporting.
  Task      154 on host co2289 reporting.
  Task      155 on host co2289 reporting.
  Task      156 on host co2289 reporting.
  Task      157 on host co2289 reporting.
  Task      158 on host co2289 reporting.
  Task      159 on host co2289 reporting.

  Performing system and environment tests:
  | Environment variable OMP_NUM_THREADS correctly set to 1.
  | Checking for ScaLAPACK...
  | Testing pdtran()...
  | All pdtran() tests passed.

  Obtaining array dimensions for all initial allocations:
  
  -----------------------------------------------------------------------
  Parsing control.in (first pass over file, find array dimensions only).
  The contents of control.in will be repeated verbatim below
  unless switched off by setting 'verbatim_writeout .false.' .
  in the first line of control.in .
  -----------------------------------------------------------------------
  
  xc                 hse06  0.11
  hse_unit b
  spin              none
  charge      0.0
  relativistic       atomic_zora scalar
  #elsi_restart read
  # SCF settings
  relax_geometry bfgs 1E-3
  #relax_unit_cell fixed_angles
  use_symmetric_forces .true.
  occupation_type gaussian       0.1
  # k-grid settings  (to be adjusted)
  k_grid  4 4 1
  #empty_states 8
  use_dipole_correction
  #include_spin_orbit non_self_consistent
  # sc_accuracy_rho    1E-4
  #    sc_accuracy_eev    1E-3
  #    sc_accuracy_etot   1E-4
  #    sc_accuracy_forces 1E-2
  many_body_dispersion_nl    beta=0.83
  ################################################################################
  #
  #  FHI-aims code project
  #  Volker Blum, 2018
  #
  #  Suggested "intermediate" defaults for Se atom (to be pasted into control.in file)
  #
  #  2020/09/15 These "intermediate" settings are identical to past "tight" defaults
  #             and differ only in the "g" function that is now included in "tight".
  #
  ################################################################################
    species        Se
  #     global species definitions
      nucleus             34
      mass                78.96
  #
      l_hartree           6
  #
      cut_pot             4.0          2.0  1.0
      basis_dep_cutoff    1e-4
  #
      radial_base         55 7.0
      radial_multiplier   2
      angular_grids       specified
        division   0.0830  110
        division   0.1357  194
        division   0.7377  302
        division   0.8610  434
  #      division   0.9640  590
  #      division   1.0773  770
  #      division   2.5539  974
  #      outer_grid  974
        outer_grid  434
  ################################################################################
  #
  #  Definition of "minimal" basis
  #
  ################################################################################
  #     valence basis states
      valence      4  s   2.
      valence      4  p   4.
      valence      3  d  10.
  #     ion occupancy
      ion_occ      4  s   1.
      ion_occ      4  p   3.
      ion_occ      3  d  10.
  ################################################################################
  #
  #  Suggested additional basis functions. For production calculations,
  #  uncomment them one after another (the most important basis functions are
  #  listed first).
  #
  #  Constructed for dimers: 1.85 A, 2.15 A, 2.50 A, 3.00 A, 4.00 A
  #
  ################################################################################
  #  "First tier" - improvements: -336.21 meV to -36.85 meV
       hydro 3 d 4.3
       hydro 2 p 1.6
       hydro 4 f 7.2
       ionic 4 s auto
  #  "Second tier" - improvements: -14.39 meV to -1.49 meV
  #     hydro 5 g 10.4
  #     hydro 4 p 4.5
  #     hydro 4 d 6.2
  #     hydro 4 f 11.2
  #     hydro 1 s 0.65
  #     hydro 6 h 15.2
  #  "Third tier" - improvements: -0.46 meV and below
  #     hydro 5 g 14.4
  #     ionic 4 d auto
  #     hydro 4 f 22.4
  #     hydro 5 f 7.4
  #     hydro 5 p 8
  #     hydro 5 s 9.4
  #  "Fourth tier" - improvements: -0.12 meV and below
  #     hydro 5 d 11.6
  #     hydro 6 h 18
  #     hydro 4 p 4
  #     hydro 5 f 16
  #     hydro 4 s 3.9
  
  
  ################################################################################
  #
  #  FHI-aims code project
  #  Volker Blum, 2018
  #
  #  Suggested "intermediate" defaults for S atom (to be pasted into control.in file)
  #
  ################################################################################
    species        S
  #     global species definitions
      nucleus             16
      mass                32.065
  #
      l_hartree           6
  #
      cut_pot             4.0          2.0  1.0
      basis_dep_cutoff    1e-4
  #
      radial_base         44 7.0
      radial_multiplier   2
      angular_grids       specified
        division   0.4665  110
        division   0.5810  194
        division   0.7139  302
        division   0.8274  434
  #      division   0.9105  590
  #      division   1.0975  770
  #      division   1.2028  974
  #      outer_grid  974
        outer_grid  434
  ################################################################################
  #
  #  Definition of "minimal" basis
  #
  ################################################################################
  #     valence basis states
      valence      3  s   2.
      valence      3  p   4.
  #     ion occupancy
      ion_occ      3  s   1.
      ion_occ      3  p   3.
  ################################################################################
  #
  #  Suggested additional basis functions. For production calculations,
  #  uncomment them one after another (the most important basis functions are
  #  listed first).
  #
  #  Constructed for dimers: 1.6 A, 1.9 A, 2.5 A, 3.25 A, 4.0 A
  #
  ################################################################################
  #  "First tier" - improvements: -652.81 meV to -45.53 meV
       ionic 3 d auto
       hydro 2 p 1.8
       hydro 4 f 7
       ionic 3 s auto
  #  "Second tier" - improvements: -30.20 meV to -1.74 meV
  #     hydro 4 d 6.2
  for_aux     hydro 5 g 10.8
  #     hydro 4 p 4.9
  #     hydro 5 f 10
  #     hydro 1 s 0.8
  #  "Third tier" - improvements: -1.04 meV to -0.20 meV
  #     hydro 3 d 3.9
  #     hydro 3 d 2.7
  #     hydro 5 g 12
  #     hydro 4 p 10.4
  #     hydro 5 f 12.4
  #     hydro 2 s 1.9
  #  "Fourth tier" - improvements: -0.35 meV to -0.06 meV
  #     hydro 4 d 10.4
  #     hydro 4 p 7.2
  #     hydro 4 d 10
  #     hydro 5 g 19.2
  #     hydro 4 s 12
  
  ################################################################################
  #
  #  FHI-aims code project
  # Volker Blum, Fritz Haber Institute Berlin, 2009
  #
  #  Suggested "intermediate" defaults for Mo atom (to be pasted into control.in file)
  #
  #  See https://aaltodoc.aalto.fi/handle/123456789/33620 for the report these
  #  setting are based on
  ################################################################################
    species        Mo
  #     global species definitions
      nucleus             42
      mass                95.94
  #
      l_hartree           6
  #
      cut_pot             4.0  2.0  1.0
      basis_dep_cutoff    1e-4
  #
      radial_base         59 7.0
      radial_multiplier   2
      angular_grids specified
        division   0.3117   50
        division   0.6750  110
        division   1.0351  194
        division   1.2073  302
        division   1.6402  434
  #      division   1.9185  590
  #      division   2.0237  770
  #      division   2.0980  974
  #      division   2.7972 1202
  #      outer_grid  974
        outer_grid  434
  ################################################################################
  #
  #  Definition of "minimal" basis
  #
  ################################################################################
  #     valence basis states
      valence      5  s   1.
      valence      4  p   6.
      valence      4  d   5.
  #     ion occupancy
      ion_occ     5  s   0.
      ion_occ     4  p   6.
      ion_occ     4  d   4.
  ################################################################################
  #
  #  Suggested additional basis functions. For production calculations,
  #  uncomment them one after another (the most important basis functions are
  #  listed first).
  #
  #  Constructed for dimers: 1.675 A, 1.9 A, 2.375 A, 3.00 A, 4.00 A
  #
  ################################################################################
  #  "First tier"  - max. impr. -711.23  meV, min. impr. -21.07 meV
       hydro 4 f 8.4
       hydro 3 d 2.8
       ionic 5 p auto
       for_aux hydro 5 g 12
       ionic 5 s auto
  #  "Second tier" - max. impr. -39.38  meV, min. impr. -2.68 meV
  #     hydro 4 f 12.4
  #     hydro 3 d 3.3
  #     hydro 6 h 17.2
  #     hydro 4 f 7.6
  #     hydro 3 p 3.0
  #     hydro 1 s 0.65
  #  "Third tier"  - max. impr. -5.50 meV, min. impr. -0.47 meV
  #     hydro 4 f 29.2
  #     hydro 5 g 11.2
  #     hydro 3 d 6.8
  #     hydro 6 h 14.8
  #     hydro 2 p 2.3
  #     hydro 4 s 3.8
  #  "Fourth tier"  - max. impr. -0.58 meV, min. impr. -0.19 meV
  #     hydro 5 f 6.8
  #     hydro 5 d 14.8
  #     hydro 6 s 7.8
  #     hydro 5 g 20.8
  #     hydro 5 d 10.4
  #     hydro 5 p 9.8
  #  Further functions - -0.17 meV and below
  #     hydro 5 d 3.2
  ################################################################################
  #
  #  FHI-aims code project
  #  Volker Blum, Maria Dragoumi, Sebastian Kokott 2020
  #
  #  Suggested "intermediate" defaults for W atom (to be pasted into control.in file)
  #
  ################################################################################
    species          W
  #     global species definitions
      nucleus        74
      mass           183.84
  #
      l_hartree      6
  #
      cut_pot        4.0  2.0  1.0
      basis_dep_cutoff    1e-4
  #
      radial_base    71  7.0
      radial_multiplier  2
      angular_grids specified
        division   0.2901   50
        division   0.6986  110
        division   1.0528  194
        division   1.2659  302
        division   1.5223  434
  #      division   1.8111  590
  #      division   2.0105  770
  #      division   2.0413  974
  #      division   2.8804 1202
  #      outer_grid  974
        outer_grid  434
  ################################################################################
  #
  #  Definition of "minimal" basis
  #
  ################################################################################
  #     valence basis states
      valence      6  s   2.
      valence      5  p   6.
      valence      5  d   4.
      valence      4  f  14.
  #     ion occupancy
      ion_occ      6  s   1.
      ion_occ      5  p   6.
      ion_occ      5  d   3.
      ion_occ      4  f  14.
  ################################################################################
  #
  #  Suggested additional basis functions. For production calculations,
  #  uncomment them one after another (the most important basis functions are
  #  listed first).
  #
  #  Constructed for dimers: 1.775, 1.99, 2.50, 3.25, 4.50 AA
  #
  ################################################################################
  #
  #  "First tier" - improvements: -603.77 meV to -28.99 meV
       hydro 4 f 7.8
       hydro 4 d 5.8
       ionic 6 p auto
    for_aux   hydro 5 g 12.4
       ionic 6 s auto
  #  "Second tier" - improvements: -28.30 meV to -1.31 meV
  #     hydro 6 h 16.8
  #     ionic 5 d auto
  #     hydro 4 f 8.6
  #     hydro 5 g 16.8
  #     hydro 5 d 8.4
  #     hydro 3 p 3.3
  #     hydro 1 s 0.55
  #  "Third tier" - max. impr. -1.79 meV, min. impr. -0.26 meV
  #     hydro 5 f 10.8
  #     hydro 5 g 34.4
  #     hydro 6 h 20.8
  #     hydro 5 g 12.8
  #     hydro 2 p 1.6
  #     hydro 4 s 4.7
  #     hydro 6 d 18.4
  #  "Fourth tier" -0.46 max. impr. - meV, min. impr. -0.09 meV
  #     hydro 6 h 21.6
  #     hydro 5 f 22.4
  #     hydro 4 f 4
  #     hydro 5 p 9.6
  #     hydro 6 d 17.2
  #     hydro 3 p 5.2
  #     hydro 5 g 4.7
  #     hydro 6 s 7.6
  
  -----------------------------------------------------------------------
  Completed first pass over input file control.in .
  -----------------------------------------------------------------------
  
  
  -----------------------------------------------------------------------
  Parsing geometry.in (first pass over file, find array dimensions only).
  The contents of geometry.in will be repeated verbatim below
  unless switched off by setting 'verbatim_writeout .false.' .
  in the first line of geometry.in .
  -----------------------------------------------------------------------
  
  lattice_vector 15.7211863000000012 -0.0013077000000000 0.0000000000000000
  lattice_vector -7.8616331500000003 13.6141377499999994 0.0000000000000000
  lattice_vector 0.0000000000000000 0.0000000000000000 103.1080520499999835
  atom 7.0735154500000021 13.1591537499999998 51.5540259599999899 Mo
  atom 0.7860311799999999 0.4536968600000000 53.1080520499999835 S
  atom 0.7860311700000001 0.4536968599999999 49.9999999999999929 S
  atom 13.3628219700000024 2.2678435499999998 51.5540259599999899 Mo
  atom -0.7862954500000001 3.1765244099999994 53.1080520499999835 S
  atom -0.7862954600000002 3.1765244099999999 49.9999999999999929 S
  atom 11.7904953400000032 4.9906711000000001 51.5540259599999899 Mo
  atom -2.3586220800000000 5.8993519599999997 53.1080520499999835 S
  atom -2.3586220899999999 5.8993519600000006 49.9999999999999929 S
  atom 10.2181687100000005 7.7134986500000018 51.5540259599999899 Mo
  atom -3.9309487100000009 8.6221795100000023 53.1080520499999835 S
  atom -3.9309487200000013 8.6221795100000040 49.9999999999999929 S
  atom 8.6458420800000031 10.4363261999999999 51.5540259599999899 Mo
  atom -5.5032753400000001 11.3450070600000004 53.1080520499999835 S
  atom -5.5032753500000000 11.3450070600000004 49.9999999999999929 S
  atom -5.5034335900000002 13.1601999100000011 51.5540259599999899 Mo
  atom 3.9302684400000008 0.4534353200000000 53.1080520499999835 S
  atom 3.9302684300000008 0.4534353200000000 49.9999999999999929 S
  atom 0.7858729300000004 2.2688897099999998 51.5540259599999899 Mo
  atom 2.3579418100000002 3.1762628700000004 53.1080520499999835 S
  atom 2.3579418000000003 3.1762628700000000 49.9999999999999929 S
  atom -0.7864536999999996 4.9917172600000006 51.5540259599999899 Mo
  atom 0.7856151800000003 5.8990904200000003 53.1080520499999835 S
  atom 0.7856151700000004 5.8990904200000003 49.9999999999999929 S
  atom -2.3587803300000001 7.7145448100000023 51.5540259599999899 Mo
  atom -0.7867114500000003 8.6219179700000019 53.1080520499999835 S
  atom -0.7867114599999998 8.6219179700000019 49.9999999999999929 S
  atom -3.9311069599999997 10.4373723600000012 51.5540259599999899 Mo
  atom -2.3590380799999999 11.3447455200000000 53.1080520499999835 S
  atom -2.3590380900000003 11.3447455200000000 49.9999999999999929 S
  atom -2.3591963299999992 13.1599383700000008 51.5540259599999899 Mo
  atom 7.0745057000000013 0.4531737800000000 53.1080520499999835 S
  atom 7.0745056900000023 0.4531737800000000 49.9999999999999929 S
  atom 3.9301101900000011 2.2686281699999999 51.5540259599999899 Mo
  atom 5.5021790700000013 3.1760013300000005 53.1080520499999835 S
  atom 5.5021790600000022 3.1760013300000001 49.9999999999999929 S
  atom 2.3577835600000006 4.9914557200000003 51.5540259599999899 Mo
  atom 3.9298524400000012 5.8988288799999999 53.1080520499999835 S
  atom 3.9298524300000017 5.8988288799999999 49.9999999999999929 S
  atom 0.7854569300000005 7.7142832700000019 51.5540259599999899 Mo
  atom 2.3575258100000003 8.6216564300000034 53.1080520499999835 S
  atom 2.3575258000000008 8.6216564300000016 49.9999999999999929 S
  atom -0.7868696999999992 10.4371108200000009 51.5540259599999899 Mo
  atom 0.7851991800000006 11.3444839799999997 53.1080520499999835 S
  atom 0.7851991700000011 11.3444839799999997 49.9999999999999929 S
  atom 0.7850409300000007 13.1596768300000004 51.5540259599999899 Mo
  atom 10.2187429600000019 0.4529122400000000 53.1080520499999835 S
  atom 10.2187429500000011 0.4529122400000000 49.9999999999999929 S
  atom 7.0743474500000012 2.2683666300000001 51.5540259599999899 Mo
  atom 8.6464163300000010 3.1757397900000002 53.1080520499999835 S
  atom 8.6464163200000019 3.1757397900000002 49.9999999999999929 S
  atom 5.5020208200000020 4.9911941799999999 51.5540259599999899 Mo
  atom 7.0740897000000018 5.8985673399999996 53.1080520499999835 S
  atom 7.0740896900000019 5.8985673399999996 49.9999999999999929 S
  atom 5.5017630700000009 8.6213948900000013 53.1080520499999835 S
  atom 5.5017630600000018 8.6213948900000013 49.9999999999999929 S
  atom 2.3573675600000006 10.4368492800000006 51.5540259599999899 Mo
  atom 3.9294364400000021 11.3442224399999994 53.1080520499999835 S
  atom 3.9294364300000000 11.3442224399999994 49.9999999999999929 S
  atom 3.9292781900000011 13.1594152900000001 51.5540259599999899 Mo
  atom 13.3629802200000025 0.4526507000000000 53.1080520499999835 S
  atom 13.3629802100000017 0.4526507000000000 49.9999999999999929 S
  atom 10.2185847100000018 2.2681050899999997 51.5540259599999899 Mo
  atom 11.7906535900000016 3.1754782499999998 53.1080520499999835 S
  atom 11.7906535800000007 3.1754782499999998 49.9999999999999929 S
  atom 8.6462580800000026 4.9909326400000005 51.5540259599999899 Mo
  atom 10.2183269600000024 5.8983058000000002 53.1080520499999835 S
  atom 10.2183269500000016 5.8983058000000002 49.9999999999999929 S
  atom 7.0739314500000017 7.7137601900000003 51.5540259599999899 Mo
  atom 8.6460003300000015 8.6211333500000009 53.1080520499999835 S
  atom 8.6460003200000006 8.6211333500000009 49.9999999999999929 S
  atom 5.5016048200000016 10.4365877400000002 51.5540259599999899 Mo
  atom 7.0736737000000023 11.3439608999999990 53.1080520499999835 S
  atom 7.0736736900000023 11.3439608999999990 49.9999999999999929 S
  
  -----------------------------------------------------------------------
  Completed first pass over input file geometry.in .
  -----------------------------------------------------------------------
  

  Basic array size parameters:
  | Number of species                 :        4
  | Number of atoms                   :       74
  | Number of lattice vectors         :        3
  | Max. basis fn. angular momentum   :        4
  | Max. atomic/ionic basis occupied n:        6
  | Max. number of basis fn. types    :        3
  | Max. radial fns per species/type  :       14
  | Max. logarithmic grid size        :     1483
  | Max. radial integration grid size :      143
  | Max. angular integration grid size:      434
  | Max. angular grid division number :        8
  | Radial grid for Hartree potential :     1483
  | Number of spin channels           :        1

------------------------------------------------------------
          Reading file control.in.
------------------------------------------------------------

  XC: Using HSE-functional with OMEGA =  0.110000E+00 <units>.
  XC: For the actual units (bohr^-1 or Angstrom^-1), see below.
  hse_unit: Unit for the HSE06 hybrid functional screening parameter set to bohr^(-1).
  Spin treatment: No spin polarisation.
  Charge =   0.000000E+00: Neutral system requested explicitly.
  Scalar relativistic treatment of kinetic energy: on-site free-atom approximation to ZORA.
  Geometry relaxation: Modified BFGS - TRM (trust radius method) for lattice optimization.
  Convergence accuracy for geometry relaxation: Maximum force <   0.100000E-02 eV/A.
  Occupation type: Gaussian broadening, width =   0.100000E+00 eV.
  Found k-point grid:         4         4         1
  Using dipole correction.
  Using libMBD for calculating MBD and TS energies
 
  Reading configuration options for species Se                  .
  | Found nuclear charge :  34.0000
  | Found atomic mass :    78.9600000000000      amu
  | Found l_max for Hartree potential  :   6
  | Found cutoff potl. onset [A], width [A], scale factor :    4.00000    2.00000    1.00000
  | Threshold for basis-dependent cutoff potential is   0.100000E-03
  | Found data for basic radial integration grid :    55 points, outermost radius =    7.000 A
  | Found multiplier for basic radial grid :   2
  | Found angular grid specification: user-specified.
  | Specified grid contains     5 separate shells.
  | Check grid settings after all constraints further below.
  | Found free-atom valence shell :  4 s   2.000
  | Found free-atom valence shell :  4 p   4.000
  | Found free-atom valence shell :  3 d  10.000
  | Found free-ion valence shell :  4 s   1.000
  | Found free-ion valence shell :  4 p   3.000
  | Found free-ion valence shell :  3 d  10.000
  | Found hydrogenic basis function :  3 d   4.300
  | Found hydrogenic basis function :  2 p   1.600
  | Found hydrogenic basis function :  4 f   7.200
  | Found ionic basis function :  4 s , default cutoff radius.
  Species Se                  : Missing cutoff potential type.
  Defaulting to exp(1/x)/(1-x)^2 type cutoff potential.
  Species Se: No 'logarithmic' tag. Using default grid for free atom:
  | Default logarithmic grid data [bohr] : 0.1000E-03 0.1000E+03 0.1012E+01
  | Will include ionic basis functions of  2.0-fold positive Se                   ion.
  Species Se: On-site basis accuracy parameter (for Gram-Schmidt orthonormalisation) not specified.
  Using default value basis_acc =  0.1000000E-03.
  Species Se                  : Using default innermost maximum threshold i_radial=  2 for radial functions.
  Species Se                  : Default cutoff onset for free atom density etc. : 0.40000000E+01 AA.
  Species Se                  : Basic radial grid will be enhanced according to radial_multiplier =   2, to contain   111 grid points.
 
  Reading configuration options for species S                   .
  | Found nuclear charge :  16.0000
  | Found atomic mass :    32.0650000000000      amu
  | Found l_max for Hartree potential  :   6
  | Found cutoff potl. onset [A], width [A], scale factor :    4.00000    2.00000    1.00000
  | Threshold for basis-dependent cutoff potential is   0.100000E-03
  | Found data for basic radial integration grid :    44 points, outermost radius =    7.000 A
  | Found multiplier for basic radial grid :   2
  | Found angular grid specification: user-specified.
  | Specified grid contains     5 separate shells.
  | Check grid settings after all constraints further below.
  | Found free-atom valence shell :  3 s   2.000
  | Found free-atom valence shell :  3 p   4.000
  | Found free-ion valence shell :  3 s   1.000
  | Found free-ion valence shell :  3 p   3.000
  | Found ionic basis function :  3 d , default cutoff radius.
  | Found hydrogenic basis function :  2 p   1.800
  | Found hydrogenic basis function :  4 f   7.000
  | Found ionic basis function :  3 s , default cutoff radius.
  | Found hydrogenic extended basis function :  5 g  10.800
  Species S                   : Missing cutoff potential type.
  Defaulting to exp(1/x)/(1-x)^2 type cutoff potential.
  Species S : No 'logarithmic' tag. Using default grid for free atom:
  | Default logarithmic grid data [bohr] : 0.1000E-03 0.1000E+03 0.1012E+01
  | Will include ionic basis functions of  2.0-fold positive S                    ion.
  Species S : On-site basis accuracy parameter (for Gram-Schmidt orthonormalisation) not specified.
  Using default value basis_acc =  0.1000000E-03.
  Species S                   : Using default innermost maximum threshold i_radial=  2 for radial functions.
  Species S                   : Default cutoff onset for free atom density etc. : 0.40000000E+01 AA.
  Species S                   : Basic radial grid will be enhanced according to radial_multiplier =   2, to contain    89 grid points.
 
  Reading configuration options for species Mo                  .
  | Found nuclear charge :  42.0000
  | Found atomic mass :    95.9400000000000      amu
  | Found l_max for Hartree potential  :   6
  | Found cutoff potl. onset [A], width [A], scale factor :    4.00000    2.00000    1.00000
  | Threshold for basis-dependent cutoff potential is   0.100000E-03
  | Found data for basic radial integration grid :    59 points, outermost radius =    7.000 A
  | Found multiplier for basic radial grid :   2
  | Found angular grid specification: user-specified.
  | Specified grid contains     6 separate shells.
  | Check grid settings after all constraints further below.
  | Found free-atom valence shell :  5 s   1.000
  | Found free-atom valence shell :  4 p   6.000
  | Found free-atom valence shell :  4 d   5.000
  | Found free-ion valence shell :  5 s   0.000
  | Found free-ion valence shell :  4 p   6.000
  | Found free-ion valence shell :  4 d   4.000
  | Found hydrogenic basis function :  4 f   8.400
  | Found hydrogenic basis function :  3 d   2.800
  | Found ionic basis function :  5 p , default cutoff radius.
  | Found hydrogenic extended basis function :  5 g  12.000
  | Found ionic basis function :  5 s , default cutoff radius.
  Species Mo                  : Missing cutoff potential type.
  Defaulting to exp(1/x)/(1-x)^2 type cutoff potential.
  Species Mo: No 'logarithmic' tag. Using default grid for free atom:
  | Default logarithmic grid data [bohr] : 0.1000E-03 0.1000E+03 0.1012E+01
  | Will include ionic basis functions of  2.0-fold positive Mo                   ion.
  Species Mo: On-site basis accuracy parameter (for Gram-Schmidt orthonormalisation) not specified.
  Using default value basis_acc =  0.1000000E-03.
  Species Mo                  : Using default innermost maximum threshold i_radial=  2 for radial functions.
  Species Mo                  : Default cutoff onset for free atom density etc. : 0.40000000E+01 AA.
  Species Mo                  : Basic radial grid will be enhanced according to radial_multiplier =   2, to contain   119 grid points.
 
  Reading configuration options for species W                   .
  | Found nuclear charge :  74.0000
  | Found atomic mass :    183.840000000000      amu
  | Found l_max for Hartree potential  :   6
  | Found cutoff potl. onset [A], width [A], scale factor :    4.00000    2.00000    1.00000
  | Threshold for basis-dependent cutoff potential is   0.100000E-03
  | Found data for basic radial integration grid :    71 points, outermost radius =    7.000 A
  | Found multiplier for basic radial grid :   2
  | Found angular grid specification: user-specified.
  | Specified grid contains     6 separate shells.
  | Check grid settings after all constraints further below.
  | Found free-atom valence shell :  6 s   2.000
  | Found free-atom valence shell :  5 p   6.000
  | Found free-atom valence shell :  5 d   4.000
  | Found free-atom valence shell :  4 f  14.000
  | Found free-ion valence shell :  6 s   1.000
  | Found free-ion valence shell :  5 p   6.000
  | Found free-ion valence shell :  5 d   3.000
  | Found free-ion valence shell :  4 f  14.000
  | Found hydrogenic basis function :  4 f   7.800
  | Found hydrogenic basis function :  4 d   5.800
  | Found ionic basis function :  6 p , default cutoff radius.
  | Found hydrogenic extended basis function :  5 g  12.400
  | Found ionic basis function :  6 s , default cutoff radius.
  Species W                   : Missing cutoff potential type.
  Defaulting to exp(1/x)/(1-x)^2 type cutoff potential.
  Species W : No 'logarithmic' tag. Using default grid for free atom:
  | Default logarithmic grid data [bohr] : 0.1000E-03 0.1000E+03 0.1012E+01
  | Will include ionic basis functions of  2.0-fold positive W                    ion.
  Species W : On-site basis accuracy parameter (for Gram-Schmidt orthonormalisation) not specified.
  Using default value basis_acc =  0.1000000E-03.
  Species W                   : Using default innermost maximum threshold i_radial=  2 for radial functions.
  Species W                   : Default cutoff onset for free atom density etc. : 0.40000000E+01 AA.
  Species W                   : Basic radial grid will be enhanced according to radial_multiplier =   2, to contain   143 grid points.
 
  Finished reading input file 'control.in'.
 
------------------------------------------------------------


------------------------------------------------------------
          Reading geometry description geometry.in.
------------------------------------------------------------
  | The smallest distance between any two atoms is         2.38950272 AA.
  | The first atom of this pair is atom number                      1 .
  | The second atom of this pair is atom number                     3 .
  | Wigner-Seitz cell of the first atom image           0     0     0 .
  | (The Wigner-Seitz cell of the second atom is 0 0 0  by definition.)

  Symmetry information by spglib:
  | Precision set to  0.1E-04
  | Number of Operations  : 2
  | Space group           : 6
  | International         : Pm
  | Schoenflies           : Cs^1
  Input structure read successfully.
  The structure contains       74 atoms,  and a total of       1808.000 electrons.

  Input geometry:
  | Unit cell:
  |       15.72118630       -0.00130770        0.00000000
  |       -7.86163315       13.61413775        0.00000000
  |        0.00000000        0.00000000      103.10805205
  | Atomic structure:
  |       Atom                x [A]            y [A]            z [A]
  |    1: Species Mo            7.07351545       13.15915375       51.55402596
  |    2: Species S             0.78603118        0.45369686       53.10805205
  |    3: Species S             0.78603117        0.45369686       50.00000000
  |    4: Species Mo           13.36282197        2.26784355       51.55402596
  |    5: Species S            -0.78629545        3.17652441       53.10805205
  |    6: Species S            -0.78629546        3.17652441       50.00000000
  |    7: Species Mo           11.79049534        4.99067110       51.55402596
  |    8: Species S            -2.35862208        5.89935196       53.10805205
  |    9: Species S            -2.35862209        5.89935196       50.00000000
  |   10: Species Mo           10.21816871        7.71349865       51.55402596
  |   11: Species S            -3.93094871        8.62217951       53.10805205
  |   12: Species S            -3.93094872        8.62217951       50.00000000
  |   13: Species Mo            8.64584208       10.43632620       51.55402596
  |   14: Species S            -5.50327534       11.34500706       53.10805205
  |   15: Species S            -5.50327535       11.34500706       50.00000000
  |   16: Species Mo           -5.50343359       13.16019991       51.55402596
  |   17: Species S             3.93026844        0.45343532       53.10805205
  |   18: Species S             3.93026843        0.45343532       50.00000000
  |   19: Species Mo            0.78587293        2.26888971       51.55402596
  |   20: Species S             2.35794181        3.17626287       53.10805205
  |   21: Species S             2.35794180        3.17626287       50.00000000
  |   22: Species Mo           -0.78645370        4.99171726       51.55402596
  |   23: Species S             0.78561518        5.89909042       53.10805205
  |   24: Species S             0.78561517        5.89909042       50.00000000
  |   25: Species Mo           -2.35878033        7.71454481       51.55402596
  |   26: Species S            -0.78671145        8.62191797       53.10805205
  |   27: Species S            -0.78671146        8.62191797       50.00000000
  |   28: Species Mo           -3.93110696       10.43737236       51.55402596
  |   29: Species S            -2.35903808       11.34474552       53.10805205
  |   30: Species S            -2.35903809       11.34474552       50.00000000
  |   31: Species Mo           -2.35919633       13.15993837       51.55402596
  |   32: Species S             7.07450570        0.45317378       53.10805205
  |   33: Species S             7.07450569        0.45317378       50.00000000
  |   34: Species Mo            3.93011019        2.26862817       51.55402596
  |   35: Species S             5.50217907        3.17600133       53.10805205
  |   36: Species S             5.50217906        3.17600133       50.00000000
  |   37: Species Mo            2.35778356        4.99145572       51.55402596
  |   38: Species S             3.92985244        5.89882888       53.10805205
  |   39: Species S             3.92985243        5.89882888       50.00000000
  |   40: Species Mo            0.78545693        7.71428327       51.55402596
  |   41: Species S             2.35752581        8.62165643       53.10805205
  |   42: Species S             2.35752580        8.62165643       50.00000000
  |   43: Species Mo           -0.78686970       10.43711082       51.55402596
  |   44: Species S             0.78519918       11.34448398       53.10805205
  |   45: Species S             0.78519917       11.34448398       50.00000000
  |   46: Species Mo            0.78504093       13.15967683       51.55402596
  |   47: Species S            10.21874296        0.45291224       53.10805205
  |   48: Species S            10.21874295        0.45291224       50.00000000
  |   49: Species Mo            7.07434745        2.26836663       51.55402596
  |   50: Species S             8.64641633        3.17573979       53.10805205
  |   51: Species S             8.64641632        3.17573979       50.00000000
  |   52: Species Mo            5.50202082        4.99119418       51.55402596
  |   53: Species S             7.07408970        5.89856734       53.10805205
  |   54: Species S             7.07408969        5.89856734       50.00000000
  |   55: Species S             5.50176307        8.62139489       53.10805205
  |   56: Species S             5.50176306        8.62139489       50.00000000
  |   57: Species Mo            2.35736756       10.43684928       51.55402596
  |   58: Species S             3.92943644       11.34422244       53.10805205
  |   59: Species S             3.92943643       11.34422244       50.00000000
  |   60: Species Mo            3.92927819       13.15941529       51.55402596
  |   61: Species S            13.36298022        0.45265070       53.10805205
  |   62: Species S            13.36298021        0.45265070       50.00000000
  |   63: Species Mo           10.21858471        2.26810509       51.55402596
  |   64: Species S            11.79065359        3.17547825       53.10805205
  |   65: Species S            11.79065358        3.17547825       50.00000000
  |   66: Species Mo            8.64625808        4.99093264       51.55402596
  |   67: Species S            10.21832696        5.89830580       53.10805205
  |   68: Species S            10.21832695        5.89830580       50.00000000
  |   69: Species Mo            7.07393145        7.71376019       51.55402596
  |   70: Species S             8.64600033        8.62113335       53.10805205
  |   71: Species S             8.64600032        8.62113335       50.00000000
  |   72: Species Mo            5.50160482       10.43658774       51.55402596
  |   73: Species S             7.07367370       11.34396090       53.10805205
  |   74: Species S             7.07367369       11.34396090       50.00000000

  Lattice parameters for 3D lattice (in Angstroms) :    15.721186   15.721006  103.108052
  Angle(s) between unit vectors (in degrees)       :    90.000000   90.000000  120.009523


  Quantities derived from the lattice vectors:
  | Reciprocal lattice vector 1:  0.399683  0.230801  0.000000
  | Reciprocal lattice vector 2:  0.000038  0.461541  0.000000
  | Reciprocal lattice vector 3:  0.000000  0.000000  0.060938
  | Unit cell volume                               :   0.220672E+05  A^3

  Fractional coordinates:
                         L1                L2                L3
       atom_frac         0.93333401        0.96666969        0.50000000  Mo
       atom_frac         0.06666633        0.03333182        0.51507182  S
       atom_frac         0.06666633        0.03333182        0.48492818  S
       atom_frac         0.93333401        0.16666969        0.50000000  Mo
       atom_frac         0.06666633        0.23333182        0.51507182  S
       atom_frac         0.06666633        0.23333182        0.48492818  S
       atom_frac         0.93333401        0.36666969        0.50000000  Mo
       atom_frac         0.06666633        0.43333182        0.51507182  S
       atom_frac         0.06666633        0.43333182        0.48492818  S
       atom_frac         0.93333401        0.56666969        0.50000000  Mo
       atom_frac         0.06666633        0.63333182        0.51507182  S
       atom_frac         0.06666633        0.63333182        0.48492818  S
       atom_frac         0.93333401        0.76666969        0.50000000  Mo
       atom_frac         0.06666633        0.83333182        0.51507182  S
       atom_frac         0.06666633        0.83333182        0.48492818  S
       atom_frac         0.13333401        0.96666969        0.50000000  Mo
       atom_frac         0.26666633        0.03333182        0.51507182  S
       atom_frac         0.26666633        0.03333182        0.48492818  S
       atom_frac         0.13333401        0.16666969        0.50000000  Mo
       atom_frac         0.26666633        0.23333182        0.51507182  S
       atom_frac         0.26666633        0.23333182        0.48492818  S
       atom_frac         0.13333401        0.36666969        0.50000000  Mo
       atom_frac         0.26666633        0.43333182        0.51507182  S
       atom_frac         0.26666633        0.43333182        0.48492818  S
       atom_frac         0.13333401        0.56666969        0.50000000  Mo
       atom_frac         0.26666633        0.63333182        0.51507182  S
       atom_frac         0.26666633        0.63333182        0.48492818  S
       atom_frac         0.13333401        0.76666969        0.50000000  Mo
       atom_frac         0.26666633        0.83333182        0.51507182  S
       atom_frac         0.26666633        0.83333182        0.48492818  S
       atom_frac         0.33333401        0.96666969        0.50000000  Mo
       atom_frac         0.46666633        0.03333182        0.51507182  S
       atom_frac         0.46666633        0.03333182        0.48492818  S
       atom_frac         0.33333401        0.16666969        0.50000000  Mo
       atom_frac         0.46666633        0.23333182        0.51507182  S
       atom_frac         0.46666633        0.23333182        0.48492818  S
       atom_frac         0.33333401        0.36666969        0.50000000  Mo
       atom_frac         0.46666633        0.43333182        0.51507182  S
       atom_frac         0.46666633        0.43333182        0.48492818  S
       atom_frac         0.33333401        0.56666969        0.50000000  Mo
       atom_frac         0.46666633        0.63333182        0.51507182  S
       atom_frac         0.46666633        0.63333182        0.48492818  S
       atom_frac         0.33333401        0.76666969        0.50000000  Mo
       atom_frac         0.46666633        0.83333182        0.51507182  S
       atom_frac         0.46666633        0.83333182        0.48492818  S
       atom_frac         0.53333401        0.96666969        0.50000000  Mo
       atom_frac         0.66666633        0.03333182        0.51507182  S
       atom_frac         0.66666633        0.03333182        0.48492818  S
       atom_frac         0.53333401        0.16666969        0.50000000  Mo
       atom_frac         0.66666633        0.23333182        0.51507182  S
       atom_frac         0.66666633        0.23333182        0.48492818  S
       atom_frac         0.53333401        0.36666969        0.50000000  Mo
       atom_frac         0.66666633        0.43333182        0.51507182  S
       atom_frac         0.66666633        0.43333182        0.48492818  S
       atom_frac         0.66666633        0.63333182        0.51507182  S
       atom_frac         0.66666633        0.63333182        0.48492818  S
       atom_frac         0.53333401        0.76666969        0.50000000  Mo
       atom_frac         0.66666633        0.83333182        0.51507182  S
       atom_frac         0.66666633        0.83333182        0.48492818  S
       atom_frac         0.73333401        0.96666969        0.50000000  Mo
       atom_frac         0.86666633        0.03333182        0.51507182  S
       atom_frac         0.86666633        0.03333182        0.48492818  S
       atom_frac         0.73333401        0.16666969        0.50000000  Mo
       atom_frac         0.86666633        0.23333182        0.51507182  S
       atom_frac         0.86666633        0.23333182        0.48492818  S
       atom_frac         0.73333401        0.36666969        0.50000000  Mo
       atom_frac         0.86666633        0.43333182        0.51507182  S
       atom_frac         0.86666633        0.43333182        0.48492818  S
       atom_frac         0.73333401        0.56666969        0.50000000  Mo
       atom_frac         0.86666633        0.63333182        0.51507182  S
       atom_frac         0.86666633        0.63333182        0.48492818  S
       atom_frac         0.73333401        0.76666969        0.50000000  Mo
       atom_frac         0.86666633        0.83333182        0.51507182  S
       atom_frac         0.86666633        0.83333182        0.48492818  S

 
  Finished reading input file 'control.in'.
 

------------------------------------------------------------
          Reading geometry description geometry.in.
------------------------------------------------------------
 
  Consistency checks for stacksize environment parameter are next.
 
  | Maximum stacksize for task 0: unlimited
  | Maximum stacksize for task 1: unlimited
  | Maximum stacksize for task 2: unlimited
  | Maximum stacksize for task 3: unlimited
  | Maximum stacksize for task 4: unlimited
  | Maximum stacksize for task 5: unlimited
  | Maximum stacksize for task 6: unlimited
  | Maximum stacksize for task 7: unlimited
  | Maximum stacksize for task 8: unlimited
  | Maximum stacksize for task 9: unlimited
  | Maximum stacksize for task 10: unlimited
  | Maximum stacksize for task 11: unlimited
  | Maximum stacksize for task 12: unlimited
  | Maximum stacksize for task 13: unlimited
  | Maximum stacksize for task 14: unlimited
  | Maximum stacksize for task 15: unlimited
  | Maximum stacksize for task 16: unlimited
  | Maximum stacksize for task 17: unlimited
  | Maximum stacksize for task 18: unlimited
  | Maximum stacksize for task 19: unlimited
  | Maximum stacksize for task 20: unlimited
  | Maximum stacksize for task 21: unlimited
  | Maximum stacksize for task 22: unlimited
  | Maximum stacksize for task 23: unlimited
  | Maximum stacksize for task 24: unlimited
  | Maximum stacksize for task 25: unlimited
  | Maximum stacksize for task 26: unlimited
  | Maximum stacksize for task 27: unlimited
  | Maximum stacksize for task 28: unlimited
  | Maximum stacksize for task 29: unlimited
  | Maximum stacksize for task 30: unlimited
  | Maximum stacksize for task 31: unlimited
  | Maximum stacksize for task 32: unlimited
  | Maximum stacksize for task 33: unlimited
  | Maximum stacksize for task 34: unlimited
  | Maximum stacksize for task 35: unlimited
  | Maximum stacksize for task 36: unlimited
  | Maximum stacksize for task 37: unlimited
  | Maximum stacksize for task 38: unlimited
  | Maximum stacksize for task 39: unlimited
  | Maximum stacksize for task 40: unlimited
  | Maximum stacksize for task 41: unlimited
  | Maximum stacksize for task 42: unlimited
  | Maximum stacksize for task 43: unlimited
  | Maximum stacksize for task 44: unlimited
  | Maximum stacksize for task 45: unlimited
  | Maximum stacksize for task 46: unlimited
  | Maximum stacksize for task 47: unlimited
  | Maximum stacksize for task 48: unlimited
  | Maximum stacksize for task 49: unlimited
  | Maximum stacksize for task 50: unlimited
  | Maximum stacksize for task 51: unlimited
  | Maximum stacksize for task 52: unlimited
  | Maximum stacksize for task 53: unlimited
  | Maximum stacksize for task 54: unlimited
  | Maximum stacksize for task 55: unlimited
  | Maximum stacksize for task 56: unlimited
  | Maximum stacksize for task 57: unlimited
  | Maximum stacksize for task 58: unlimited
  | Maximum stacksize for task 59: unlimited
  | Maximum stacksize for task 60: unlimited
  | Maximum stacksize for task 61: unlimited
  | Maximum stacksize for task 62: unlimited
  | Maximum stacksize for task 63: unlimited
  | Maximum stacksize for task 64: unlimited
  | Maximum stacksize for task 65: unlimited
  | Maximum stacksize for task 66: unlimited
  | Maximum stacksize for task 67: unlimited
  | Maximum stacksize for task 68: unlimited
  | Maximum stacksize for task 69: unlimited
  | Maximum stacksize for task 70: unlimited
  | Maximum stacksize for task 71: unlimited
  | Maximum stacksize for task 72: unlimited
  | Maximum stacksize for task 73: unlimited
  | Maximum stacksize for task 74: unlimited
  | Maximum stacksize for task 75: unlimited
  | Maximum stacksize for task 76: unlimited
  | Maximum stacksize for task 77: unlimited
  | Maximum stacksize for task 78: unlimited
  | Maximum stacksize for task 79: unlimited
  | Maximum stacksize for task 80: unlimited
  | Maximum stacksize for task 81: unlimited
  | Maximum stacksize for task 82: unlimited
  | Maximum stacksize for task 83: unlimited
  | Maximum stacksize for task 84: unlimited
  | Maximum stacksize for task 85: unlimited
  | Maximum stacksize for task 86: unlimited
  | Maximum stacksize for task 87: unlimited
  | Maximum stacksize for task 88: unlimited
  | Maximum stacksize for task 89: unlimited
  | Maximum stacksize for task 90: unlimited
  | Maximum stacksize for task 91: unlimited
  | Maximum stacksize for task 92: unlimited
  | Maximum stacksize for task 93: unlimited
  | Maximum stacksize for task 94: unlimited
  | Maximum stacksize for task 95: unlimited
  | Maximum stacksize for task 96: unlimited
  | Maximum stacksize for task 97: unlimited
  | Maximum stacksize for task 98: unlimited
  | Maximum stacksize for task 99: unlimited
  | Maximum stacksize for task 100: unlimited
  | Maximum stacksize for task 101: unlimited
  | Maximum stacksize for task 102: unlimited
  | Maximum stacksize for task 103: unlimited
  | Maximum stacksize for task 104: unlimited
  | Maximum stacksize for task 105: unlimited
  | Maximum stacksize for task 106: unlimited
  | Maximum stacksize for task 107: unlimited
  | Maximum stacksize for task 108: unlimited
  | Maximum stacksize for task 109: unlimited
  | Maximum stacksize for task 110: unlimited
  | Maximum stacksize for task 111: unlimited
  | Maximum stacksize for task 112: unlimited
  | Maximum stacksize for task 113: unlimited
  | Maximum stacksize for task 114: unlimited
  | Maximum stacksize for task 115: unlimited
  | Maximum stacksize for task 116: unlimited
  | Maximum stacksize for task 117: unlimited
  | Maximum stacksize for task 118: unlimited
  | Maximum stacksize for task 119: unlimited
  | Maximum stacksize for task 120: unlimited
  | Maximum stacksize for task 121: unlimited
  | Maximum stacksize for task 122: unlimited
  | Maximum stacksize for task 123: unlimited
  | Maximum stacksize for task 124: unlimited
  | Maximum stacksize for task 125: unlimited
  | Maximum stacksize for task 126: unlimited
  | Maximum stacksize for task 127: unlimited
  | Maximum stacksize for task 128: unlimited
  | Maximum stacksize for task 129: unlimited
  | Maximum stacksize for task 130: unlimited
  | Maximum stacksize for task 131: unlimited
  | Maximum stacksize for task 132: unlimited
  | Maximum stacksize for task 133: unlimited
  | Maximum stacksize for task 134: unlimited
  | Maximum stacksize for task 135: unlimited
  | Maximum stacksize for task 136: unlimited
  | Maximum stacksize for task 137: unlimited
  | Maximum stacksize for task 138: unlimited
  | Maximum stacksize for task 139: unlimited
  | Maximum stacksize for task 140: unlimited
  | Maximum stacksize for task 141: unlimited
  | Maximum stacksize for task 142: unlimited
  | Maximum stacksize for task 143: unlimited
  | Maximum stacksize for task 144: unlimited
  | Maximum stacksize for task 145: unlimited
  | Maximum stacksize for task 146: unlimited
  | Maximum stacksize for task 147: unlimited
  | Maximum stacksize for task 148: unlimited
  | Maximum stacksize for task 149: unlimited
  | Maximum stacksize for task 150: unlimited
  | Maximum stacksize for task 151: unlimited
  | Maximum stacksize for task 152: unlimited
  | Maximum stacksize for task 153: unlimited
  | Maximum stacksize for task 154: unlimited
  | Maximum stacksize for task 155: unlimited
  | Maximum stacksize for task 156: unlimited
  | Maximum stacksize for task 157: unlimited
  | Maximum stacksize for task 158: unlimited
  | Maximum stacksize for task 159: unlimited
  | Current stacksize for task 0: unlimited
  | Current stacksize for task 1: unlimited
  | Current stacksize for task 2: unlimited
  | Current stacksize for task 3: unlimited
  | Current stacksize for task 4: unlimited
  | Current stacksize for task 5: unlimited
  | Current stacksize for task 6: unlimited
  | Current stacksize for task 7: unlimited
  | Current stacksize for task 8: unlimited
  | Current stacksize for task 9: unlimited
  | Current stacksize for task 10: unlimited
  | Current stacksize for task 11: unlimited
  | Current stacksize for task 12: unlimited
  | Current stacksize for task 13: unlimited
  | Current stacksize for task 14: unlimited
  | Current stacksize for task 15: unlimited
  | Current stacksize for task 16: unlimited
  | Current stacksize for task 17: unlimited
  | Current stacksize for task 18: unlimited
  | Current stacksize for task 19: unlimited
  | Current stacksize for task 20: unlimited
  | Current stacksize for task 21: unlimited
  | Current stacksize for task 22: unlimited
  | Current stacksize for task 23: unlimited
  | Current stacksize for task 24: unlimited
  | Current stacksize for task 25: unlimited
  | Current stacksize for task 26: unlimited
  | Current stacksize for task 27: unlimited
  | Current stacksize for task 28: unlimited
  | Current stacksize for task 29: unlimited
  | Current stacksize for task 30: unlimited
  | Current stacksize for task 31: unlimited
  | Current stacksize for task 32: unlimited
  | Current stacksize for task 33: unlimited
  | Current stacksize for task 34: unlimited
  | Current stacksize for task 35: unlimited
  | Current stacksize for task 36: unlimited
  | Current stacksize for task 37: unlimited
  | Current stacksize for task 38: unlimited
  | Current stacksize for task 39: unlimited
  | Current stacksize for task 40: unlimited
  | Current stacksize for task 41: unlimited
  | Current stacksize for task 42: unlimited
  | Current stacksize for task 43: unlimited
  | Current stacksize for task 44: unlimited
  | Current stacksize for task 45: unlimited
  | Current stacksize for task 46: unlimited
  | Current stacksize for task 47: unlimited
  | Current stacksize for task 48: unlimited
  | Current stacksize for task 49: unlimited
  | Current stacksize for task 50: unlimited
  | Current stacksize for task 51: unlimited
  | Current stacksize for task 52: unlimited
  | Current stacksize for task 53: unlimited
  | Current stacksize for task 54: unlimited
  | Current stacksize for task 55: unlimited
  | Current stacksize for task 56: unlimited
  | Current stacksize for task 57: unlimited
  | Current stacksize for task 58: unlimited
  | Current stacksize for task 59: unlimited
  | Current stacksize for task 60: unlimited
  | Current stacksize for task 61: unlimited
  | Current stacksize for task 62: unlimited
  | Current stacksize for task 63: unlimited
  | Current stacksize for task 64: unlimited
  | Current stacksize for task 65: unlimited
  | Current stacksize for task 66: unlimited
  | Current stacksize for task 67: unlimited
  | Current stacksize for task 68: unlimited
  | Current stacksize for task 69: unlimited
  | Current stacksize for task 70: unlimited
  | Current stacksize for task 71: unlimited
  | Current stacksize for task 72: unlimited
  | Current stacksize for task 73: unlimited
  | Current stacksize for task 74: unlimited
  | Current stacksize for task 75: unlimited
  | Current stacksize for task 76: unlimited
  | Current stacksize for task 77: unlimited
  | Current stacksize for task 78: unlimited
  | Current stacksize for task 79: unlimited
  | Current stacksize for task 80: unlimited
  | Current stacksize for task 81: unlimited
  | Current stacksize for task 82: unlimited
  | Current stacksize for task 83: unlimited
  | Current stacksize for task 84: unlimited
  | Current stacksize for task 85: unlimited
  | Current stacksize for task 86: unlimited
  | Current stacksize for task 87: unlimited
  | Current stacksize for task 88: unlimited
  | Current stacksize for task 89: unlimited
  | Current stacksize for task 90: unlimited
  | Current stacksize for task 91: unlimited
  | Current stacksize for task 92: unlimited
  | Current stacksize for task 93: unlimited
  | Current stacksize for task 94: unlimited
  | Current stacksize for task 95: unlimited
  | Current stacksize for task 96: unlimited
  | Current stacksize for task 97: unlimited
  | Current stacksize for task 98: unlimited
  | Current stacksize for task 99: unlimited
  | Current stacksize for task 100: unlimited
  | Current stacksize for task 101: unlimited
  | Current stacksize for task 102: unlimited
  | Current stacksize for task 103: unlimited
  | Current stacksize for task 104: unlimited
  | Current stacksize for task 105: unlimited
  | Current stacksize for task 106: unlimited
  | Current stacksize for task 107: unlimited
  | Current stacksize for task 108: unlimited
  | Current stacksize for task 109: unlimited
  | Current stacksize for task 110: unlimited
  | Current stacksize for task 111: unlimited
  | Current stacksize for task 112: unlimited
  | Current stacksize for task 113: unlimited
  | Current stacksize for task 114: unlimited
  | Current stacksize for task 115: unlimited
  | Current stacksize for task 116: unlimited
  | Current stacksize for task 117: unlimited
  | Current stacksize for task 118: unlimited
  | Current stacksize for task 119: unlimited
  | Current stacksize for task 120: unlimited
  | Current stacksize for task 121: unlimited
  | Current stacksize for task 122: unlimited
  | Current stacksize for task 123: unlimited
  | Current stacksize for task 124: unlimited
  | Current stacksize for task 125: unlimited
  | Current stacksize for task 126: unlimited
  | Current stacksize for task 127: unlimited
  | Current stacksize for task 128: unlimited
  | Current stacksize for task 129: unlimited
  | Current stacksize for task 130: unlimited
  | Current stacksize for task 131: unlimited
  | Current stacksize for task 132: unlimited
  | Current stacksize for task 133: unlimited
  | Current stacksize for task 134: unlimited
  | Current stacksize for task 135: unlimited
  | Current stacksize for task 136: unlimited
  | Current stacksize for task 137: unlimited
  | Current stacksize for task 138: unlimited
  | Current stacksize for task 139: unlimited
  | Current stacksize for task 140: unlimited
  | Current stacksize for task 141: unlimited
  | Current stacksize for task 142: unlimited
  | Current stacksize for task 143: unlimited
  | Current stacksize for task 144: unlimited
  | Current stacksize for task 145: unlimited
  | Current stacksize for task 146: unlimited
  | Current stacksize for task 147: unlimited
  | Current stacksize for task 148: unlimited
  | Current stacksize for task 149: unlimited
  | Current stacksize for task 150: unlimited
  | Current stacksize for task 151: unlimited
  | Current stacksize for task 152: unlimited
  | Current stacksize for task 153: unlimited
  | Current stacksize for task 154: unlimited
  | Current stacksize for task 155: unlimited
  | Current stacksize for task 156: unlimited
  | Current stacksize for task 157: unlimited
  | Current stacksize for task 158: unlimited
  | Current stacksize for task 159: unlimited
 
  Consistency checks for the contents of control.in are next.
 
  HSE06 screening parameters: omega_HF  =      0.11000000 bohr^-1, and
                              omega_PBE =      0.11000000 bohr^-1.
  MPI_IN_PLACE appears to work with this MPI implementation.
  | Keeping use_mpi_in_place .true. (see manual).
  Explicit treatment of the Coulomb operator is needed, but the RI method is not specified.
  Coulomb operator: Defaulting to 'LVL fast' resolution of identity - RI_type = LVL_fast
  Species Se: Using default value for prodbas_acc =   1.000000E-04.
  Species Se: Using default value max_l_prodbas =    20.
  Species S: Using default value for prodbas_acc =   1.000000E-04.
  Species S: Using default value max_l_prodbas =    20.
  Species Mo: Using default value for prodbas_acc =   1.000000E-04.
  Species Mo: Using default value max_l_prodbas =    20.
  Species W: Using default value for prodbas_acc =   1.000000E-04.
  Species W: Using default value max_l_prodbas =    20.
  Target number of points in a grid batch is not set. Defaulting to  100
  Method for grid partitioning is not set. Defaulting to parallel hash+maxmin partitioning.
  Batch size limit is not set. Defaulting to    200
  By default, will store active basis functions for each batch.
  If in need of memory, prune_basis_once .false. can be used to disable this option.
  communication_type for Hartree potential was not specified.
  Defaulting to calc_hartree .
  Defaulting to Pulay charge density mixer.
  Pulay mixer: Number of relevant iterations not set.
  Defaulting to    8 iterations.
  Pulay mixer: Number of initial linear mixing iterations not set.
  Defaulting to    0 iterations.
  Work space size for distributed Hartree potential not set.
  Defaulting to   0.200000E+03 MB.
  Mixing parameter for charge density mixing has not been set.
  Using default: charge_mix_param =     0.0500.
  The mixing parameter will be adjusted in iteration number     2 of the first full s.c.f. cycle only.
  Algorithm-dependent basis array size parameters:
  | n_max_pulay                         :        8
  Maximum number of self-consistency iterations not provided.
  Presetting  1000 iterations.
  Presetting      1001 iterations before the initial mixing cycle
  is restarted anyway using the sc_init_iter criterion / keyword.
  Presetting a factor      1.000 between actual scf density residual
  and density convergence criterion sc_accuracy_rho below which sc_init_iter
  takes no effect.
 * No s.c.f. convergence criteria (sc_accuracy_*) were provided in control.in.
 * The run will proceed with a reasonable default guess, but please check whether.
 * the s.c.f. cycles seem to take too much or too little time.
  No maximum number of relaxation steps, defaulting to     1000
  Default initial Hessian is Lindh matrix (thres = 15.00) plus  0.200000E+01 eV/A^2 times unity.
  No maximum energy tolerance for TRM/BFGS moves, defaulting to   0.100000E-02
  Maximum energy tolerance by which TRM/BFGS trajectory may increase over multiple steps:   0.300000E-02
  No harmonic length scale. Defaulting to   0.250000E-01 A.
  No trust radius initializer. Defaulting to   0.200000E+00 A.
  Forces evaluation will include force correction term due to incomplete self-consistency (default).
 * Notice: The s.c.f. convergence criterion sc_accuracy_rho was not provided.
 * We used to stop in this case, and ask the user to provide reasonable
 * scf convergence criteria. However, this led some users to employ criteria
 * that led to extremely long run times, e.g., for simple relaxation.
 * We now preset a default value for sc_accuracy_rho if it is not set.
 * You may still wish to check if this setting is too tight or too loose for your needs.
 * Based on n_atoms and forces and force-correction status, FHI-aims chose sc_accuracy_rho =  0.280951E-04 .
  Force calculation: scf convergence accuracy of forces not set.
  Defaulting to 'sc_accuracy_forces not_checked'.
  Handling of forces: Unphysical translation and rotation will be removed from forces.
  No accuracy limit for integral partition fn. given. Defaulting to  0.1000E-14.
  No threshold value for u(r) in integrations given. Defaulting to  0.1000E-05.
  No accuracy for occupation numbers given. Defaulting to  0.1000E-12.
  No threshold value for occupation numbers given. Defaulting to  0.0000E+00.
  No accuracy for fermi level given. Defaulting to  0.1000E-19.
  Maximum # of iterations to find E_F not set. Defaulting to  200.
  Preferred method for the eigenvalue solver ('KS_method') not specified in 'control.in'.
  Calling BLACS routine to test compilation state
  Since ScaLAPACK support is enabled, defaulting to ELPA (via ELSI).
  Will not use alltoall communication since running on < 1024 CPUs.
  Threshold for basis singularities not set.
  Default threshold for basis singularities:  0.1000E-04
  partition_type (choice of integration weights) for integrals was not specified.
  | Using a version of the partition function of Stratmann and coworkers ('stratmann_sparse').
  | At each grid point, the set of atoms used to build the partition table is smoothly restricted to
  | only those atoms whose free-atom density would be non-zero at that grid point.
  Partitioning for Hartree potential was not defined. Using partition_type for integrals.
  | Adjusted default value of keyword multip_moments_threshold to:       0.10000000E-11
  | This value may affect high angular momentum components of the Hartree potential in periodic systems.
  Threshold for auxiliary basis singularities not set.
  Default threshold for auxiliary basis singularities:  0.1000E-04
  No q(lm)/r^(l+1) cutoff set for long-range Hartree potential.
  | Using default value of  0.100000E-09 .
  | Verify using the multipole_threshold keyword.
  Defaulting to new monopole extrapolation.
  Density update method: automatic selection selected.
  Using density matrix based charge density update.
  Using density matrix based charge density update.
  Using packed matrix style: index .
 * NOTE: You are attempting to run a periodic structure with an exchange treatment
 * which requires a two-electron Coulomb operator (Hartree-Fock or a hybrid functional).
 * The present implementation is reliable to our knowledge, but some things
 * (like band structure output, or perhaps the auxilary basis set for small
 * orbital basis sets - see the "for_aux" keyword) require extra care.
 * Please let us know if you encounter any trouble.
  Coulomb operator: Defaulting to screening threshold for four-center integrals:   0.100000E-06
  Coulomb operator: Defaulting to screening threshold for Coulomb matrix:   0.100000E-09
  Coulomb operator: Defaulting to 'LVL_fast' resolution of identity - RI_type = LVL_fast 
  No other resolution of identity version is supported for periodic boundary conditions at present.
  Coulomb operator: Defaulting to logarithmic spherical Bessel transform integrals (use_logsbt .true.).
  HSE with LVL_fast: Also defaulting to logarithmic spherical Bessel transform integrals.
  Geometry relaxation: A file "geometry.in.next_step" is written out by default after each step.
  | This file contains the geometry of the current relaxation step as well as
  | the current Hessian matrix needed to restart the relaxation algorithm.
  | If you do not want part or all of this information, use the keywords
  | "write_restart_geometry" or "hessian_to_restart_geometry" to switch the output off.
  Defaulting to use full k-point grid (no symmetry reduction).
  Charge integration errors on the 3D integration grid will be compensated
  by explicit normalization and distribution of residual charges.
  Use the "compensate_multipole_errors" flag to change this behaviour.
  LVL not implemented with density matrix yet
  -> switching to transformed overlap
  LVL probably works better with logsbt
  Default to 1D ("use_logsbt") integrations for auxiliary 2-center integrals.
  Default onset of logarithmic r-grid for SBT is -38.000000000000
  Default onset of logarithmic k-grid for SBT is -25.000000000000
  Default range of logarithmic r- and k-grid for SBT is  45.000000000000
  Default number of logarithmic r- and k-grid for SBT is   4096
  * Use logSBT for radial HSE integration, too
  Default of use_2d_corr is to use the efficient 2D distribution where possible
 
  Consistency checks for the contents of geometry.in are next.
 

  Range separation radius for Ewald summation (hartree_convergence_parameter):      5.00000000 bohr.
  Number of empty states per atom not set in control.in - providing a guess from actual geometry.
  | Total number of empty states used during s.c.f. cycle:      282
  If you use a very high smearing, use empty_states (per atom!) in control.in to increase this value.

  Structure-dependent array size parameters: 
  | Maximum number of distinct radial functions  :       56
  | Maximum number of basis functions            :     2876
  | Number of Kohn-Sham states (occupied + empty):     1186
------------------------------------------------------------
  Setting Coulomb cut-width to  1.091868692359 * rcut.
  Setting Coulomb cutting radius rcut to 31.437666432982 A.
 Error: The dipole correction needs vacuum z-level to be defined
 Vacuum level will be determined automatically.
 Determine position of vacuum level automatically
 **WARNING** : This feature is experimental and still requires some testing
 **PLEASE ** : If you see it fail, please report.
 Vacuum level determined:
 set_vacuum_level    103.108052050000

------------------------------------------------------------
          Preparing all fixed parts of the calculation.
------------------------------------------------------------
  Determining machine precision:
    2.225073858507201E-308
  Setting up grids for atomic and cluster calculations.

  Creating wave function, potential, and density for free atoms.

  Species: Se

  List of occupied orbitals and eigenvalues:
    n    l              occ      energy [Ha]    energy [eV]
    1    0           2.0000      -466.337810    -12689.6975
    2    0           2.0000       -59.202598     -1610.9847
    3    0           2.0000        -7.847116      -213.5309
    4    0           2.0000        -0.634372       -17.2621
    2    1           6.0000       -52.061107     -1416.6548
    3    1           6.0000        -5.620941      -152.9536
    4    1           4.0000        -0.238469        -6.4891
    3    2          10.0000        -1.951949       -53.1152


  Species: S

  List of occupied orbitals and eigenvalues:
    n    l              occ      energy [Ha]    energy [eV]
    1    0           2.0000       -88.680731     -2413.1255
    2    0           2.0000        -7.781719      -211.7513
    3    0           2.0000        -0.633662       -17.2428
    2    1           6.0000        -5.751976      -156.5192
    3    1           4.0000        -0.257086        -6.9957


  Species: Mo

  List of occupied orbitals and eigenvalues:
    n    l              occ      energy [Ha]    energy [eV]
    1    0           2.0000      -745.344654    -20281.8600
    2    0           2.0000      -103.288246     -2810.6162
    3    0           2.0000       -17.516687      -476.6533
    4    0           2.0000        -2.358559       -64.1796
    5    0           1.0000        -0.145159        -3.9500
    2    1           6.0000       -92.308627     -2511.8455
    3    1           6.0000       -13.936005      -379.2180
    4    1           6.0000        -1.408138       -38.3174
    3    2          10.0000        -8.119011      -220.9295
    4    2           5.0000        -0.132984        -3.6187


  Species: W

  List of occupied orbitals and eigenvalues:
    n    l              occ      energy [Ha]    energy [eV]
    1    0           2.0000     -2764.899999    -75236.7570
    2    0           2.0000      -447.822848    -12185.8797
    3    0           2.0000      -101.923634     -2773.4832
    4    0           2.0000       -20.945301      -569.9506
    5    0           2.0000        -2.899582       -78.9016
    6    0           2.0000        -0.207066        -5.6345
    2    1           6.0000      -391.021390    -10640.2334
    3    1           6.0000       -85.417793     -2324.3364
    4    1           6.0000       -15.562838      -423.4864
    5    1           6.0000        -1.582233       -43.0547
    3    2          10.0000       -66.517936     -1810.0451
    4    2          10.0000        -8.758436      -238.3292
    5    2           4.0000        -0.161873        -4.4048
    4    3          14.0000        -1.221948       -33.2509


  Adding cutoff potential to free-atom effective potential.
  Creating fixed part of basis set: Ionic, confined, hydrogenic.
 
  Se                   ion:

  List of free ionic orbitals and eigenvalues:
    n    l      energy [Ha]    energy [eV]
    1    0      -467.261007    -12714.8189
    2    0       -60.104893     -1635.5374
    3    0        -8.743714      -237.9286
    4    0        -1.414053       -38.4783
    2    1       -52.964156     -1441.2280
    3    1        -6.516916      -177.3343
    4    1        -0.961869       -26.1738
    3    2        -2.844511       -77.4031


  List of ionic basis orbitals and eigenvalues:
    n    l      energy [Ha]    energy [eV]    outer radius [A]
    4    0        -1.414046       -38.4782       4.083166

 
  Se                   hydrogenic:
 
  List of hydrogenic basis orbitals: 
    n    l      effective z      eigenvalue [eV]  inner max. [A]     outer max. [A]     outer radius [A]   
    3    2         4.300000       -27.9518           1.103845           1.103845           5.278265
    2    1         1.600000        -8.6828           1.326010           1.326010           5.475439
    4    3         7.200000       -44.0822           1.173422           1.173422           4.965294
 
 
  S                    ion:

  List of free ionic orbitals and eigenvalues:
    n    l      energy [Ha]    energy [eV]
    1    0       -89.703778     -2440.9640
    2    0        -8.775428      -238.7916
    3    0        -1.470343       -40.0101
    2    1        -6.747660      -183.6132
[...]
    921       0.00000          -0.134429           -3.65800
    922       0.00000          -0.134410           -3.65749
    923       0.00000          -0.133402           -3.63006
    924       0.00000          -0.133389           -3.62970
    925       0.00000          -0.133319           -3.62778
    926       0.00000          -0.132152           -3.59604
    927       0.00000          -0.131864           -3.58819
    928       0.00000          -0.131854           -3.58794
    929       0.00000          -0.127996           -3.48296
    930       0.00000          -0.126505           -3.44238
    931       0.00000          -0.126489           -3.44194
    932       0.00000          -0.120945           -3.29108
    933       0.00000          -0.120917           -3.29031
    934       0.00000          -0.120785           -3.28672
    935       0.00000          -0.120549           -3.28030
    936       0.00000          -0.119748           -3.25852
    937       0.00000          -0.119349           -3.24764
    938       0.00000          -0.119339           -3.24738
    939       0.00000          -0.119175           -3.24292
    940       0.00000          -0.119148           -3.24219
    941       0.00000          -0.118924           -3.23608
    942       0.00000          -0.118909           -3.23567
    943       0.00000          -0.118875           -3.23476
    944       0.00000          -0.118485           -3.22414
    945       0.00000          -0.113345           -3.08428
    946       0.00000          -0.113315           -3.08345
    947       0.00000          -0.112503           -3.06136
    948       0.00000          -0.111738           -3.04055
    949       0.00000          -0.111732           -3.04038
    950       0.00000          -0.110076           -2.99533
    951       0.00000          -0.110067           -2.99508
    952       0.00000          -0.109985           -2.99284
    953       0.00000          -0.107237           -2.91807
    954       0.00000          -0.107201           -2.91709
    955       0.00000          -0.104890           -2.85419
    956       0.00000          -0.102212           -2.78133
    957       0.00000          -0.102168           -2.78013
    958       0.00000          -0.102153           -2.77972
    959       0.00000          -0.100347           -2.73059
    960       0.00000          -0.100323           -2.72992
    961       0.00000          -0.095218           -2.59102
    962       0.00000          -0.095203           -2.59062
    963       0.00000          -0.094893           -2.58217
    964       0.00000          -0.094856           -2.58116
    965       0.00000          -0.092481           -2.51652
    966       0.00000          -0.092002           -2.50350
    967       0.00000          -0.091667           -2.49440
    968       0.00000          -0.091663           -2.49427
    969       0.00000          -0.087043           -2.36857
    970       0.00000          -0.087040           -2.36848
    971       0.00000          -0.086684           -2.35880
    972       0.00000          -0.086631           -2.35735
    973       0.00000          -0.080497           -2.19043
    974       0.00000          -0.080489           -2.19023
    975       0.00000          -0.076684           -2.08669
    976       0.00000          -0.074601           -2.03001
    977       0.00000          -0.073303           -1.99467
    978       0.00000          -0.073289           -1.99431
    979       0.00000          -0.070842           -1.92772
    980       0.00000          -0.070836           -1.92754
    981       0.00000          -0.069554           -1.89266
    982       0.00000          -0.069541           -1.89231
    983       0.00000          -0.069471           -1.89041
    984       0.00000          -0.067056           -1.82470
    985       0.00000          -0.056058           -1.52541
    986       0.00000          -0.056055           -1.52534
    987       0.00000          -0.046785           -1.27308
    988       0.00000          -0.046049           -1.25306
    989       0.00000          -0.046031           -1.25257
    990       0.00000          -0.044096           -1.19992
    991       0.00000          -0.042392           -1.15356
    992       0.00000          -0.042379           -1.15318
    993       0.00000          -0.038905           -1.05866
    994       0.00000          -0.038383           -1.04445
    995       0.00000          -0.038372           -1.04415
    996       0.00000          -0.037846           -1.02983
    997       0.00000          -0.033108           -0.90092
    998       0.00000          -0.033105           -0.90083
    999       0.00000          -0.032290           -0.87866
   1000       0.00000          -0.032284           -0.87849
   1001       0.00000          -0.031668           -0.86174
   1002       0.00000          -0.030223           -0.82242
   1003       0.00000           0.033801            0.91977
   1004       0.00000           0.046611            1.26836
   1005       0.00000           0.046619            1.26857
   1006       0.00000           0.046961            1.27786
   1007       0.00000           0.047838            1.30173
   1008       0.00000           0.047850            1.30206
   1009       0.00000           0.048452            1.31844
   1010       0.00000           0.055044            1.49782
   1011       0.00000           0.055911            1.52140
   1012       0.00000           0.055941            1.52222
   1013       0.00000           0.058849            1.60136
   1014       0.00000           0.058876            1.60208
   1015       0.00000           0.063760            1.73501
   1016       0.00000           0.093110            2.53364
   1017       0.00000           0.093121            2.53394
   1018       0.00000           0.093235            2.53706
   1019       0.00000           0.093776            2.55178
   1020       0.00000           0.093788            2.55211
   1021       0.00000           0.095523            2.59931
   1022       0.00000           0.095548            2.59998
   1023       0.00000           0.096064            2.61403
   1024       0.00000           0.097894            2.66382
   1025       0.00000           0.097919            2.66452
   1026       0.00000           0.098576            2.68240
   1027       0.00000           0.101065            2.75011
   1028       0.00000           0.104887            2.85411
   1029       0.00000           0.108006            2.93900
   1030       0.00000           0.108028            2.93960
   1031       0.00000           0.109396            2.97681
   1032       0.00000           0.112634            3.06494
   1033       0.00000           0.112656            3.06552
   1034       0.00000           0.113399            3.08576
   1035       0.00000           0.118152            3.21508
   1036       0.00000           0.118165            3.21543
   1037       0.00000           0.118521            3.22513
   1038       0.00000           0.120762            3.28611
   1039       0.00000           0.120774            3.28644
   1040       0.00000           0.121871            3.31627
   1041       0.00000           0.130227            3.54365
   1042       0.00000           0.130257            3.54448
   1043       0.00000           0.130426            3.54908
   1044       0.00000           0.130590            3.55354
   1045       0.00000           0.132759            3.61255
   1046       0.00000           0.133136            3.62282
   1047       0.00000           0.133163            3.62354
   1048       0.00000           0.134682            3.66487
   1049       0.00000           0.134689            3.66508
   1050       0.00000           0.137005            3.72810
   1051       0.00000           0.141299            3.84494
   1052       0.00000           0.141307            3.84517
   1053       0.00000           0.141341            3.84609
   1054       0.00000           0.145705            3.96484
   1055       0.00000           0.146396            3.98365
   1056       0.00000           0.146410            3.98403
   1057       0.00000           0.147800            4.02183
   1058       0.00000           0.148385            4.03777
   1059       0.00000           0.148397            4.03809
   1060       0.00000           0.148514            4.04128
   1061       0.00000           0.148524            4.04154
   1062       0.00000           0.148525            4.04156
   1063       0.00000           0.149832            4.07715
   1064       0.00000           0.149841            4.07739
   1065       0.00000           0.152890            4.16036
   1066       0.00000           0.153675            4.18172
   1067       0.00000           0.154254            4.19746
   1068       0.00000           0.154278            4.19813
   1069       0.00000           0.158217            4.30530
   1070       0.00000           0.159663            4.34466
   1071       0.00000           0.159682            4.34516
   1072       0.00000           0.162624            4.42524
   1073       0.00000           0.168758            4.59213
   1074       0.00000           0.168764            4.59231
   1075       0.00000           0.171357            4.66285
   1076       0.00000           0.172047            4.68163
   1077       0.00000           0.172080            4.68254
   1078       0.00000           0.175011            4.76230
   1079       0.00000           0.175431            4.77371
   1080       0.00000           0.175462            4.77455
   1081       0.00000           0.175580            4.77779
   1082       0.00000           0.175748            4.78234
   1083       0.00000           0.175750            4.78239
   1084       0.00000           0.176538            4.80383
   1085       0.00000           0.178311            4.85208
   1086       0.00000           0.178325            4.85248
   1087       0.00000           0.182200            4.95791
   1088       0.00000           0.183660            4.99764
   1089       0.00000           0.183674            4.99803
   1090       0.00000           0.184607            5.02341
   1091       0.00000           0.184614            5.02359
   1092       0.00000           0.185533            5.04860
   1093       0.00000           0.186001            5.06134
   1094       0.00000           0.186398            5.07216
   1095       0.00000           0.188108            5.11869
   1096       0.00000           0.188111            5.11877
   1097       0.00000           0.188512            5.12967
   1098       0.00000           0.188514            5.12973
   1099       0.00000           0.190147            5.17417
   1100       0.00000           0.192070            5.22649
   1101       0.00000           0.192107            5.22750
   1102       0.00000           0.192109            5.22754
   1103       0.00000           0.192333            5.23365
   1104       0.00000           0.192334            5.23368
   1105       0.00000           0.192994            5.25163
   1106       0.00000           0.193008            5.25201
   1107       0.00000           0.193086            5.25413
   1108       0.00000           0.194455            5.29139
   1109       0.00000           0.195868            5.32984
   1110       0.00000           0.195880            5.33017
   1111       0.00000           0.198202            5.39336
   1112       0.00000           0.198211            5.39359
   1113       0.00000           0.200655            5.46011
   1114       0.00000           0.200833            5.46493
   1115       0.00000           0.200834            5.46497
   1116       0.00000           0.202424            5.50824
   1117       0.00000           0.203221            5.52994
   1118       0.00000           0.203239            5.53042
   1119       0.00000           0.203942            5.54953
   1120       0.00000           0.205016            5.57877
   1121       0.00000           0.205027            5.57907
   1122       0.00000           0.205518            5.59244
   1123       0.00000           0.207656            5.65061
   1124       0.00000           0.212814            5.79096
   1125       0.00000           0.212835            5.79153
   1126       0.00000           0.214304            5.83150
   1127       0.00000           0.214418            5.83462
   1128       0.00000           0.216893            5.90197
   1129       0.00000           0.236103            6.42469
   1130       0.00000           0.236134            6.42553
   1131       0.00000           0.238180            6.48120
   1132       0.00000           0.238978            6.50293
   1133       0.00000           0.239018            6.50400
   1134       0.00000           0.239397            6.51432
   1135       0.00000           0.240657            6.54860
   1136       0.00000           0.241632            6.57514
   1137       0.00000           0.241634            6.57518
   1138       0.00000           0.242770            6.60612
   1139       0.00000           0.244124            6.64296
   1140       0.00000           0.244864            6.66309
   1141       0.00000           0.244917            6.66452
   1142       0.00000           0.245586            6.68272
   1143       0.00000           0.245592            6.68291
   1144       0.00000           0.253143            6.88836
   1145       0.00000           0.253206            6.89008
   1146       0.00000           0.259399            7.05861
   1147       0.00000           0.259426            7.05933
   1148       0.00000           0.260349            7.08447
   1149       0.00000           0.260585            7.09088
   1150       0.00000           0.260615            7.09169
   1151       0.00000           0.260645            7.09251
   1152       0.00000           0.265568            7.22647
   1153       0.00000           0.266259            7.24528
   1154       0.00000           0.266278            7.24578
   1155       0.00000           0.266528            7.25258
   1156       0.00000           0.267492            7.27882
   1157       0.00000           0.267504            7.27914
   1158       0.00000           0.269464            7.33250
   1159       0.00000           0.275409            7.49426
   1160       0.00000           0.276080            7.51251
   1161       0.00000           0.276119            7.51358
   1162       0.00000           0.276779            7.53154
   1163       0.00000           0.279443            7.60403
   1164       0.00000           0.282040            7.67471
   1165       0.00000           0.282073            7.67560
   1166       0.00000           0.283851            7.72399
   1167       0.00000           0.284440            7.74000
   1168       0.00000           0.284458            7.74049
   1169       0.00000           0.287926            7.83485
   1170       0.00000           0.287931            7.83500
   1171       0.00000           0.288430            7.84857
   1172       0.00000           0.288468            7.84962
   1173       0.00000           0.289955            7.89007
   1174       0.00000           0.292291            7.95366
   1175       0.00000           0.292294            7.95373
   1176       0.00000           0.295409            8.03849
   1177       0.00000           0.297304            8.09005
   1178       0.00000           0.297442            8.09380
   1179       0.00000           0.304498            8.28581
   1180       0.00000           0.304536            8.28684
   1181       0.00000           0.305063            8.30118
   1182       0.00000           0.305996            8.32657
   1183       0.00000           0.306024            8.32734
   1184       0.00000           0.307603            8.37029
   1185       0.00000           0.307609            8.37047
   1186       0.00000           0.307887            8.37802

  What follows are estimated values for band gap, HOMO, LUMO, etc.
  | They are estimated on a discrete k-point grid and not necessarily exact.
  | For converged numbers, create a DOS and/or band structure plot on a denser k-grid.

  Highest occupied state (VBM) at     -6.14123168 eV (relative to internal zero)
  | Occupation number:      1.99999814
  | K-point:       6 at    0.250000    0.250000    0.000000 (in units of recip. lattice)

  Lowest unoccupied state (CBM) at    -5.47524501 eV (relative to internal zero)
  | Occupation number:      0.00000331
  | K-point:      12 at    0.500000    0.750000    0.000000 (in units of recip. lattice)

  ESTIMATED overall HOMO-LUMO gap:      0.66598667 eV between HOMO at k-point 6 and LUMO at k-point 12
  | This appears to be an indirect band gap.
  | Smallest direct gap :      0.66600499 eV for k_point 6 at    0.250000    0.250000    0.000000 (in units of recip. lattice)
  The gap value is above 0.2 eV. Unless you are using a very sparse k-point grid,
  this system is most likely an insulator or a semiconductor.
  | Chemical Potential                          :    -5.80410369 eV

  Writing energy levels:
  | Potential vacuum level, "upper" slab surface:    -0.02691183 eV
  | Potential vacuum level, "lower" slab surface:    -0.02691183 eV
  | Work function ("upper" slab surface)        :     5.77719186 eV
  | Work function ("lower" slab surface)        :     5.77719186 eV
  *** Warning: band gap may exist, check the suitability to define work function using chemical potential.
  | VBM (reference: upper vacuum level)         :     6.11431984 eV
  | CBM (reference: upper vacuum level)         :     5.44833318 eV

  Self-consistency cycle converged.


------------------------------------------------------------
  End self-consistency iteration #    26       :  max(cpu_time)    wall_clock(cpu1)
  | Time for this iteration                     :      694.944 s         695.347 s
  | Charge density & force component update     :      109.814 s         109.951 s
  | Density mixing                              :        0.039 s           0.039 s
  | Hartree multipole update                    :        0.085 s           0.086 s
  | Hartree multipole summation                 :       84.122 s          84.142 s
  | Hartree pot. SCF incomplete forces          :       55.848 s          55.874 s
  | Integration                                 :        6.134 s           6.136 s
  | Fock matrix evaluation                      :      432.428 s         432.573 s
  | Solution of K.-S. eqns.                     :        6.442 s           6.434 s
  | Total energy evaluation                     :        0.001 s           0.001 s

  Partial memory accounting:
  | Current value for overall tracked memory usage:
  |   Minimum:      535.434 MB (on task  17)
  |   Maximum:     1074.064 MB (on task  60)
  |   Average:      742.904 MB
  | Peak value for overall tracked memory usage:
  |   Minimum:      561.806 MB (on task  17 after allocating d_wave)
  |   Maximum:     1101.258 MB (on task 121 after allocating d_wave)
  |   Average:      769.669 MB
  | Largest tracked array allocation so far:
  |   Minimum:      119.868 MB (ovlp3fn for atom on task  17)
  |   Maximum:      253.838 MB (ovlp3fn for atom on task  60)
  |   Average:      171.454 MB
  Note:  These values currently only include a subset of arrays which are explicitly tracked.
  The "true" memory usage will be greater.
------------------------------------------------------------
  Obtaining max. number of non-zero basis functions in each batch .
  Evaluating KS electron density on previously omitted grid points, using the density matrix.
  Evaluating density matrix
  Finished density matrix calculation
  | Time :     0.209 s

  Entering Libmbd.
  Libmbd: VdW method: mbd-nl
  Libmbd: Evaluating kinetic energy density...

  Evaluating density matrix
  Finished density matrix calculation
  | Time :     0.244 s

  Libmbd: Performing Hirshfeld analysis...
