------------------------------------------------------------
          Invoking FHI-aims ...

          When using FHI-aims, please cite the following reference:

            Volker Blum, Ralf Gehrke, Felix Hanke, Paula Havu,
            Ville Havu, Xinguo Ren, Karsten Reuter, and Matthias Scheffler,
            'Ab Initio Molecular Simulations with Numeric Atom-Centered Orbitals',
            Computer Physics Communications 180, 2175-2196 (2009)

          In addition, many other developments in FHI-aims are likely important for
          your particular application. A partial list of references is given at the end of
          this file. Thank you for giving credit to the authors of these developments.

          For any questions about FHI-aims, please visit our slack channel at

            https://fhi-aims.slack.com

          and our main development and support site at

            https://aims-git.rz-berlin.mpg.de .

          The latter site, in particular, has a wiki to collect information, as well
          as an issue tracker to log discussions, suggest improvements, and report issues
          or bugs. https://aims-git.rz-berlin.mpg.de is also the main development site
          of the project and all new and updated code versions can be obtained there.
          Please send an email to aims-coordinators@fhi-berlin.mpg.de and we will add
          you to these sites. They are for you and everyone is welcome there.

------------------------------------------------------------



  Date     :  20210913, Time     :  162508.864
  Time zero on CPU 1             :   0.141921000000000E+00  s.
  Internal wall clock time zero  :           400782308.864  s.

  FHI-aims created a unique identifier for this run for later identification
  aims_uuid : 615C8E09-2C25-480D-AEBD-48282A07C816

  Build configuration of the current instance of FHI-aims
  -------------------------------------------------------
  FHI-aims version      : 210413
  Commit number         : e4873593e
  CMake host system     : Linux-4.12.14-122.57-default
  CMake version         : 3.5.2
  Fortran compiler      : /mpcdf/soft/SLE_12/packages/x86_64/intel_parallel_studio/2020.1/compilers_and_libraries_2020.1.217/linux/mpi/intel64/bin/mpiifort (Intel) version 19.1.0.20200306
  Fortran compiler flags: -O3 -ip -fp-model precise
  C compiler            : /mpcdf/soft/SLE_12/packages/x86_64/intel/19.1.1/bin/icc (Intel) version 19.1.0.20200306
  C compiler flags      : -O3 -ip -fp-model precise -std=gnu99
  C++ compiler          : /mpcdf/soft/SLE_12/packages/x86_64/intel/19.1.1/bin/icpc (Intel) version 19.1.0.20200306
  C++ compiler flags    : -O3 -ip -fp-model precise -std=gnu99
  Using MPI
  Using ScaLAPACK
  Using LibXC
  Using i-PI
  Using RLSY
  Linking against: /mpcdf/soft/SLE_12/packages/x86_64/intel_parallel_studio/2020.1/mkl/lib/intel64/libmkl_intel_lp64.so
                   /mpcdf/soft/SLE_12/packages/x86_64/intel_parallel_studio/2020.1/mkl/lib/intel64/libmkl_sequential.so
                   /mpcdf/soft/SLE_12/packages/x86_64/intel_parallel_studio/2020.1/mkl/lib/intel64/libmkl_core.so
                   /mpcdf/soft/SLE_12/packages/x86_64/intel_parallel_studio/2020.1/mkl/lib/intel64/libmkl_blacs_intelmpi_lp64.so
                   /mpcdf/soft/SLE_12/packages/x86_64/intel_parallel_studio/2020.1/mkl/lib/intel64/libmkl_scalapack_lp64.so

  Using       80 parallel tasks.
  Task        0 on host co3241 reporting.
  Task        1 on host co3241 reporting.
  Task        2 on host co3241 reporting.
  Task        3 on host co3241 reporting.
  Task        4 on host co3241 reporting.
  Task        5 on host co3241 reporting.
  Task        6 on host co3241 reporting.
  Task        7 on host co3241 reporting.
  Task        8 on host co3241 reporting.
  Task        9 on host co3241 reporting.
  Task       10 on host co3241 reporting.
  Task       11 on host co3241 reporting.
  Task       12 on host co3241 reporting.
  Task       13 on host co3241 reporting.
  Task       14 on host co3241 reporting.
  Task       15 on host co3241 reporting.
  Task       16 on host co3241 reporting.
  Task       17 on host co3241 reporting.
  Task       18 on host co3241 reporting.
  Task       19 on host co3241 reporting.
  Task       20 on host co3241 reporting.
  Task       21 on host co3241 reporting.
  Task       22 on host co3241 reporting.
  Task       23 on host co3241 reporting.
  Task       24 on host co3241 reporting.
  Task       25 on host co3241 reporting.
  Task       26 on host co3241 reporting.
  Task       27 on host co3241 reporting.
  Task       28 on host co3241 reporting.
  Task       29 on host co3241 reporting.
  Task       30 on host co3241 reporting.
  Task       31 on host co3241 reporting.
  Task       32 on host co3241 reporting.
  Task       33 on host co3241 reporting.
  Task       34 on host co3241 reporting.
  Task       35 on host co3241 reporting.
  Task       36 on host co3241 reporting.
  Task       37 on host co3241 reporting.
  Task       38 on host co3241 reporting.
  Task       39 on host co3241 reporting.
  Task       40 on host co3242 reporting.
  Task       41 on host co3242 reporting.
  Task       42 on host co3242 reporting.
  Task       43 on host co3242 reporting.
  Task       44 on host co3242 reporting.
  Task       45 on host co3242 reporting.
  Task       46 on host co3242 reporting.
  Task       47 on host co3242 reporting.
  Task       48 on host co3242 reporting.
  Task       49 on host co3242 reporting.
  Task       50 on host co3242 reporting.
  Task       51 on host co3242 reporting.
  Task       52 on host co3242 reporting.
  Task       53 on host co3242 reporting.
  Task       54 on host co3242 reporting.
  Task       55 on host co3242 reporting.
  Task       56 on host co3242 reporting.
  Task       57 on host co3242 reporting.
  Task       58 on host co3242 reporting.
  Task       59 on host co3242 reporting.
  Task       60 on host co3242 reporting.
  Task       61 on host co3242 reporting.
  Task       62 on host co3242 reporting.
  Task       63 on host co3242 reporting.
  Task       64 on host co3242 reporting.
  Task       65 on host co3242 reporting.
  Task       66 on host co3242 reporting.
  Task       67 on host co3242 reporting.
  Task       68 on host co3242 reporting.
  Task       69 on host co3242 reporting.
  Task       70 on host co3242 reporting.
  Task       71 on host co3242 reporting.
  Task       72 on host co3242 reporting.
  Task       73 on host co3242 reporting.
  Task       74 on host co3242 reporting.
  Task       75 on host co3242 reporting.
  Task       76 on host co3242 reporting.
  Task       77 on host co3242 reporting.
  Task       78 on host co3242 reporting.
  Task       79 on host co3242 reporting.

  Performing system and environment tests:
  | Environment variable OMP_NUM_THREADS correctly set to 1.
  | Checking for ScaLAPACK...
  | Testing pdtran()...
  | All pdtran() tests passed.

  Obtaining array dimensions for all initial allocations:
  
  -----------------------------------------------------------------------
  Parsing control.in (first pass over file, find array dimensions only).
  The contents of control.in will be repeated verbatim below
  unless switched off by setting 'verbatim_writeout .false.' .
  in the first line of control.in .
  -----------------------------------------------------------------------
  
  ##### Physical settings  ################
  xc                 pbe
  spin               none
  charge      0.0
  relativistic       atomic_zora scalar
  #elsi_restart read
  # SCF settings
  
  #vdw_correction_hirshfeld
  occupation_type gaussian       0.01
  # k-grid settings  (to be adjusted)
  k_grid  2 2 1
  #empty_states 8
  
  use_dipole_correction
  output cube stm -2.0
  #mixer   pulay
  #n_max_pulay        12 # high for metal
  #charge_mix_param   0.07 #low for metal
  
  #output cube stm -0.5
  many_body_dispersion_nl    beta=0.81
  ################################################################################
  #
  #  FHI-aims code project
  # Volker Blum, Fritz Haber Institute Berlin, 2009
  #
  #  Suggested "tight" defaults for S atom (to be pasted into control.in file)
  #
  #  Revised Jan 04, 2011, following tests (SiC) done by Lydia Nemec:
  #     d and g functions of tier 2 now enabled by default.
  #
  ################################################################################
    species        S
  #     global species definitions
      nucleus             16
      mass                32.065
  #
      l_hartree           6
  #
      cut_pot             4.0          2.0  1.0
      basis_dep_cutoff    1e-4
  #
      radial_base         44 7.0
      radial_multiplier   2
      angular_grids       specified
        division   0.4665  110
        division   0.5810  194
        division   0.7139  302
        division   0.8274  434
  #      division   0.9105  590
  #      division   1.0975  770
  #      division   1.2028  974
  #      outer_grid  974
        outer_grid  434
  ################################################################################
  #
  #  Definition of "minimal" basis
  #
  ################################################################################
  #     valence basis states
      valence      3  s   2.
      valence      3  p   4.
  #     ion occupancy
      ion_occ      3  s   1.
      ion_occ      3  p   3.
  ################################################################################
  #
  #  Suggested additional basis functions. For production calculations,
  #  uncomment them one after another (the most important basis functions are
  #  listed first).
  #
  #  Constructed for dimers: 1.6 A, 1.9 A, 2.5 A, 3.25 A, 4.0 A
  #
  ################################################################################
  #  "First tier" - improvements: -652.81 meV to -45.53 meV
       ionic 3 d auto
       hydro 2 p 1.8
       hydro 4 f 7
       ionic 3 s auto
  #  "Second tier" - improvements: -30.20 meV to -1.74 meV
       hydro 4 d 6.2
       hydro 5 g 10.8
  #     hydro 4 p 4.9
  #     hydro 5 f 10
  #     hydro 1 s 0.8
  #  "Third tier" - improvements: -1.04 meV to -0.20 meV
  #     hydro 3 d 3.9
  #     hydro 3 d 2.7
  #     hydro 5 g 12
  #     hydro 4 p 10.4
  #     hydro 5 f 12.4
  #     hydro 2 s 1.9
  #  "Fourth tier" - improvements: -0.35 meV to -0.06 meV
  #     hydro 4 d 10.4
  #     hydro 4 p 7.2
  #     hydro 4 d 10
  #     hydro 5 g 19.2
  #     hydro 4 s 12
  
  ################################################################################
  #
  # For methods that use the localized form of the "resolution of identity" for
  # the two-electron Coulomb operator (RI_method LVL), particularly Hartree-Fock and
  # hybrid density functional calculations, the highest accuracy can be obtained by
  # uncommenting the line beginning with "for_aux"  below, thus adding an extra g radial
  # function to the construction of the product basis set for the expansion.
  # See Ref. New J. Phys. 17, 093020 (2015) for more information, particularly Figs. 1 and 6.
  #
  ################################################################################
  #
  # for_aux hydro 5 g 6.0
  ################################################################################
  #
  #  FHI-aims code project
  # Volker Blum, Fritz Haber Institute Berlin, 2009
  #
  #  Suggested "tight" defaults for Mo atom (to be pasted into control.in file)
  #
  ################################################################################
    species        Mo
  #     global species definitions
      nucleus             42
      mass                95.94
  #
      l_hartree           6
  #
      cut_pot             4.0  2.0  1.0
      basis_dep_cutoff    1e-4
  #
      radial_base         59 7.0
      radial_multiplier   2
      angular_grids specified
        division   0.3117   50
        division   0.6750  110
        division   1.0351  194
        division   1.2073  302
        division   1.6402  434
  #      division   1.9185  590
  #      division   2.0237  770
  #      division   2.0980  974
  #      division   2.7972 1202
  #      outer_grid  974
        outer_grid  434
  ################################################################################
  #
  #  Definition of "minimal" basis
  #
  ################################################################################
  #     valence basis states
      valence      5  s   1.
      valence      4  p   6.
      valence      4  d   5.
  #     ion occupancy
      ion_occ     5  s   0.
      ion_occ     4  p   6.
      ion_occ     4  d   4.
  ################################################################################
  #
  #  Suggested additional basis functions. For production calculations,
  #  uncomment them one after another (the most important basis functions are
  #  listed first).
  #
  #  Constructed for dimers: 1.675 A, 1.9 A, 2.375 A, 3.00 A, 4.00 A
  #
  ################################################################################
  #  "First tier"  - max. impr. -711.23  meV, min. impr. -21.07 meV
       hydro 4 f 8.4
       hydro 3 d 2.8
       ionic 5 p auto
       hydro 5 g 12
       ionic 5 s auto
  #  "Second tier" - max. impr. -39.38  meV, min. impr. -2.68 meV
  #     hydro 4 f 12.4
  #     hydro 3 d 3.3
  #     hydro 6 h 17.2
  #     hydro 4 f 7.6
  #     hydro 3 p 3.0
  #     hydro 1 s 0.65
  #  "Third tier"  - max. impr. -5.50 meV, min. impr. -0.47 meV
  #     hydro 4 f 29.2
  #     hydro 5 g 11.2
  #     hydro 3 d 6.8
  #     hydro 6 h 14.8
  #     hydro 2 p 2.3
  #     hydro 4 s 3.8
  #  "Fourth tier"  - max. impr. -0.58 meV, min. impr. -0.19 meV
  #     hydro 5 f 6.8
  #     hydro 5 d 14.8
  #     hydro 6 s 7.8
  #     hydro 5 g 20.8
  #     hydro 5 d 10.4
  #     hydro 5 p 9.8
  #  Further functions - -0.17 meV and below
  #     hydro 5 d 3.2
  ################################################################################
  #
  #  FHI-aims code project
  # Volker Blum, Fritz Haber Institute Berlin, 2009
  #
  #  Suggested "tight" defaults for W atom (to be pasted into control.in file)
  #
  ################################################################################
    species          W
  #     global species definitions
      nucleus        74
      mass           183.84
  #
      l_hartree      6
  #
      cut_pot        4.0  2.0  1.0
      basis_dep_cutoff    1e-4
  #
      radial_base    71  7.0
      radial_multiplier  2
      angular_grids specified
        division   0.2901   50
        division   0.6986  110
        division   1.0528  194
        division   1.2659  302
        division   1.5223  434
  #      division   1.8111  590
  #      division   2.0105  770
  #      division   2.0413  974
  #      division   2.8804 1202
  #      outer_grid  974
        outer_grid  434
  ################################################################################
  #
  #  Definition of "minimal" basis
  #
  ################################################################################
  #     valence basis states
      valence      6  s   2.
      valence      5  p   6.
      valence      5  d   4.
      valence      4  f  14.
  #     ion occupancy
      ion_occ      6  s   1.
      ion_occ      5  p   6.
      ion_occ      5  d   3.
      ion_occ      4  f  14.
  ################################################################################
  #
  #  Suggested additional basis functions. For production calculations,
  #  uncomment them one after another (the most important basis functions are
  #  listed first).
  #
  #  Constructed for dimers: 1.775, 1.99, 2.50, 3.25, 4.50 AA
  #
  ################################################################################
  #
  #  "First tier" - improvements: -603.77 meV to -28.99 meV
       hydro 4 f 7.8
       hydro 4 d 5.8
       ionic 6 p auto
       hydro 5 g 12.4
       ionic 6 s auto
  #  "Second tier" - improvements: -28.30 meV to -1.31 meV
  #     hydro 6 h 16.8
  #     ionic 5 d auto
  #     hydro 4 f 8.6
  #     hydro 5 g 16.8
  #     hydro 5 d 8.4
  #     hydro 3 p 3.3
  #     hydro 1 s 0.55
  #  "Third tier" - max. impr. -1.79 meV, min. impr. -0.26 meV
  #     hydro 5 f 10.8
  #     hydro 5 g 34.4
  #     hydro 6 h 20.8
  #     hydro 5 g 12.8
  #     hydro 2 p 1.6
  #     hydro 4 s 4.7
  #     hydro 6 d 18.4
  #  "Fourth tier" -0.46 max. impr. - meV, min. impr. -0.09 meV
  #     hydro 6 h 21.6
  #     hydro 5 f 22.4
  #     hydro 4 f 4
  #     hydro 5 p 9.6
  #     hydro 6 d 17.2
  #     hydro 3 p 5.2
  #     hydro 5 g 4.7
  #     hydro 6 s 7.6
  ################################################################################
  #
  #  FHI-aims code project
  # Volker Blum, Fritz Haber Institute Berlin, 2009
  #
  #  Suggested "tight" defaults for Se atom (to be pasted into control.in file)
  #
  ################################################################################
    species        Se
  #     global species definitions
      nucleus             34
      mass                78.96
  #
      l_hartree           6
  #
      cut_pot             4.0          2.0  1.0
      basis_dep_cutoff    1e-4
  #
      radial_base         55 7.0
      radial_multiplier   2
      angular_grids       specified
        division   0.0830  110
        division   0.1357  194
        division   0.7377  302
        division   0.8610  434
  #      division   0.9640  590
  #      division   1.0773  770
  #      division   2.5539  974
  #      outer_grid  974
        outer_grid  434
  ################################################################################
  #
  #  Definition of "minimal" basis
  #
  ################################################################################
  #     valence basis states
      valence      4  s   2.
      valence      4  p   4.
      valence      3  d  10.
  #     ion occupancy
      ion_occ      4  s   1.
      ion_occ      4  p   3.
      ion_occ      3  d  10.
  ################################################################################
  #
  #  Suggested additional basis functions. For production calculations,
  #  uncomment them one after another (the most important basis functions are
  #  listed first).
  #
  #  Constructed for dimers: 1.85 A, 2.15 A, 2.50 A, 3.00 A, 4.00 A
  #
  ################################################################################
  #  "First tier" - improvements: -336.21 meV to -36.85 meV
       hydro 3 d 4.3
       hydro 2 p 1.6
       hydro 4 f 7.2
       ionic 4 s auto
  #  "Second tier" - improvements: -14.39 meV to -1.49 meV
  #     hydro 5 g 10.4
  #     hydro 4 p 4.5
  #     hydro 4 d 6.2
  #     hydro 4 f 11.2
  #     hydro 1 s 0.65
  #     hydro 6 h 15.2
  #  "Third tier" - improvements: -0.46 meV and below
  #     hydro 5 g 14.4
  #     ionic 4 d auto
  #     hydro 4 f 22.4
  #     hydro 5 f 7.4
  #     hydro 5 p 8
  #     hydro 5 s 9.4
  #  "Fourth tier" - improvements: -0.12 meV and below
  #     hydro 5 d 11.6
  #     hydro 6 h 18
  #     hydro 4 p 4
  #     hydro 5 f 16
  #     hydro 4 s 3.9
  
  
  
  -----------------------------------------------------------------------
  Completed first pass over input file control.in .
  -----------------------------------------------------------------------
  
  
  -----------------------------------------------------------------------
  Parsing geometry.in (first pass over file, find array dimensions only).
  The contents of geometry.in will be repeated verbatim below
  unless switched off by setting 'verbatim_writeout .false.' .
  in the first line of geometry.in .
  -----------------------------------------------------------------------
  
  #
  # This is the geometry file that corresponds to the current relaxation step.
  # If you do not want this file to be written, set the "write_restart_geometry" flag to .false.
  #  aims_uuid : 7512E837-BFDC-4800-A358-F7F3749DC23E
  #
  lattice_vector     16.60000000      0.00000000      0.00000000
  lattice_vector     -8.30000000     14.37602170      0.00000000
  lattice_vector      0.00000000      0.00000000    100.00000000
  atom       0.01900551      0.98697170      2.68614149 Mo
  atom       1.72645163      2.05862033      4.26867985 Se
  atom       1.64571439      1.92856703      0.95288134 Se
  atom      -1.58038732      3.87952877      2.70157516 Mo
  atom       0.29187024      4.96048914      4.26544775 Se
  atom       0.01470303      4.80045726      0.92388997 Se
  atom      -3.28567486      6.71099910      2.68614366 Mo
  atom      -1.50383130      7.65386181      4.26868780 Se
  atom      -1.65685528      7.64892811      0.95287853 Se
  atom      -4.98271442      9.57579581      2.68554759 Mo
  atom      -3.28477249     10.52374947      4.31672181 Se
  atom      -3.33265736     10.53923991      1.00561077 Se
  atom      -6.64848432     12.46089929      2.68553790 Mo
  atom      -4.97858042     13.45739899      4.31673838 Se
  atom      -4.98907952     13.40816398      1.00561554 Se
  atom       3.32150004      0.99754778      2.62575374 Mo
  atom       4.92171793      1.99700310      4.29899126 Se
  atom       5.00791322      1.92778665      0.96890157 Se
  atom       1.76542911      3.91819119      2.52266700 Mo
  atom       3.35899281      4.80195385      0.81552022 Se
  atom       0.12606272      6.75779109      2.52266383 Mo
  atom       1.68809372      7.69610399      0.81548721 Se
  atom      -1.62526274      9.56571821      2.62574726 Mo
  atom       0.04041296     10.45189654      4.29895873 Se
  atom       0.02348777     10.56112796      0.96885021 Se
  atom      -3.31686472     12.46099637      2.67235989 Mo
  atom      -1.66729213     13.41341256      4.34769101 Se
  atom      -1.64885496     13.42405825      1.02133996 Se
  atom       6.63387894      0.96926968      2.68669364 Mo
  atom       8.27740204      1.91848921      4.37814322 Se
  atom       8.31840570      1.92022157      1.05042405 Se
  atom       4.89476467      3.86389970      2.58029108 Mo
  atom       6.50679026      4.78038118      4.31676947 Se
  atom       6.63714194      4.76652871      0.99387786 Se
  atom       3.21106609      6.64599068      2.48290626 Mo
  atom       4.73080366      7.52339063      4.26055225 Se
  atom       4.92894928      7.63779166      0.94075255 Se
  atom       1.64369350      9.49518999      2.58021721 Mo
  atom       3.24335510     10.43297322      4.31674075 Se
  atom       3.29652814     10.55277625      0.99378339 Se
  atom       0.00637986     12.44852210      2.68668258 Mo
  atom       1.65017259     13.39728151      4.37813519 Se
  atom       1.67215825     13.43189748      1.05040816 Se
  atom       9.96504298      0.96135227      2.73021250 Mo
  atom      11.63106862      1.92320528      4.40455750 Se
  atom      11.63544148      1.92573627      1.07793179 Se
  atom       8.28032146      3.83288889      2.71050760 Mo
  atom       9.94238264      4.79606547      4.38766426 Se
  atom       9.97044501      4.78179657      1.06520904 Se
  atom       6.55466408      6.67306587      2.65706159 Mo
  atom       8.22128121      7.63510741      4.34740271 Se
  atom       8.27547216      7.64591313      1.04187321 Se
  atom       4.90634972      9.52804097      2.65703515 Mo
  atom       6.57284147     10.49030799      4.34738892 Se
  atom       6.60927959     10.53181040      1.04187552 Se
  atom       3.30951210     12.44259747      2.71045874 Mo
  atom       4.97469570     13.40035452      4.38762148 Se
  atom       4.97638353     13.43177131      1.06518422 Se
  atom      13.29691553      0.97124109      2.73923999 Mo
  atom      14.99688893      1.96267535      4.37606853 Se
  atom      14.94182028      1.94347686      1.06050964 Se
  atom      11.63960395      3.84185896      2.73925254 Mo
  atom      13.34821688      4.81831598      4.37606305 Se
  atom      13.30404711      4.78022906      1.06052186 Se
  atom       9.94534524      6.70222846      2.71546269 Mo
  atom      11.64217156      7.66697151      4.35754532 Se
  atom      11.61161537      7.64816133      1.03936441 Se
  atom       8.26635086      9.56460282      2.70111068 Mo
  atom       9.94847456     10.53572063      4.34838403 Se
  atom       9.93467749     10.52775114      1.03375706 Se
  atom       6.62697027     12.44979865      2.71544038 Mo
  atom       8.31087137     13.43689025      4.35752849 Se
  atom       8.27931563     13.41981540      1.03936000 Se
  #
  # What follows is the current estimated Hessian matrix constructed by the BFGS algorithm.
  # This is NOT the true Hessian matrix of the system.
  # If you do not want this information here, switch it off using the "hessian_to_restart_geometry" keyword.
  #
  
  -----------------------------------------------------------------------
  Completed first pass over input file geometry.in .
  -----------------------------------------------------------------------
  

  Basic array size parameters:
  | Number of species                 :        4
  | Number of atoms                   :       73
  | Number of lattice vectors         :        3
  | Max. basis fn. angular momentum   :        4
  | Max. atomic/ionic basis occupied n:        6
  | Max. number of basis fn. types    :        3
  | Max. radial fns per species/type  :       14
  | Max. logarithmic grid size        :     1483
  | Max. radial integration grid size :      143
  | Max. angular integration grid size:      434
  | Max. angular grid division number :        8
  | Radial grid for Hartree potential :     1483
  | Number of spin channels           :        1
  | Cube type output requested        :        1

------------------------------------------------------------
          Reading file control.in.
------------------------------------------------------------
  XC: Using PBE gradient-corrected functionals.
  Spin treatment: No spin polarisation.
  Charge =   0.000000E+00: Neutral system requested explicitly.
  Scalar relativistic treatment of kinetic energy: on-site free-atom approximation to ZORA.
  Occupation type: Gaussian broadening, width =   0.100000E-01 eV.
  Found k-point grid:         2         2         1
  Using dipole correction.
  | STM width in eV:      -2.0000
  | Cube output options:
 * Cube origin was not provided following cube request. Will be using default value.
 * Cube edges were not provided following cube request. Defaults will be used.
 Standard cube format requested.

  Using libMBD for calculating MBD and TS energies
 
  Reading configuration options for species S                   .
  | Found nuclear charge :  16.0000
  | Found atomic mass :    32.0650000000000      amu
  | Found l_max for Hartree potential  :   6
  | Found cutoff potl. onset [A], width [A], scale factor :    4.00000    2.00000    1.00000
  | Threshold for basis-dependent cutoff potential is   0.100000E-03
  | Found data for basic radial integration grid :    44 points, outermost radius =    7.000 A
  | Found multiplier for basic radial grid :   2
  | Found angular grid specification: user-specified.
  | Specified grid contains     5 separate shells.
  | Check grid settings after all constraints further below.
  | Found free-atom valence shell :  3 s   2.000
  | Found free-atom valence shell :  3 p   4.000
  | Found free-ion valence shell :  3 s   1.000
  | Found free-ion valence shell :  3 p   3.000
  | Found ionic basis function :  3 d , default cutoff radius.
  | Found hydrogenic basis function :  2 p   1.800
  | Found hydrogenic basis function :  4 f   7.000
  | Found ionic basis function :  3 s , default cutoff radius.
  | Found hydrogenic basis function :  4 d   6.200
  | Found hydrogenic basis function :  5 g  10.800
  Species S                   : Missing cutoff potential type.
  Defaulting to exp(1/x)/(1-x)^2 type cutoff potential.
  Species S : No 'logarithmic' tag. Using default grid for free atom:
  | Default logarithmic grid data [bohr] : 0.1000E-03 0.1000E+03 0.1012E+01
  | Will include ionic basis functions of  2.0-fold positive S                    ion.
  Species S : On-site basis accuracy parameter (for Gram-Schmidt orthonormalisation) not specified.
  Using default value basis_acc =  0.1000000E-03.
  Species S                   : Using default innermost maximum threshold i_radial=  2 for radial functions.
  Species S                   : Default cutoff onset for free atom density etc. : 0.40000000E+01 AA.
  Species S                   : Basic radial grid will be enhanced according to radial_multiplier =   2, to contain    89 grid points.
 
  Reading configuration options for species Mo                  .
  | Found nuclear charge :  42.0000
  | Found atomic mass :    95.9400000000000      amu
  | Found l_max for Hartree potential  :   6
  | Found cutoff potl. onset [A], width [A], scale factor :    4.00000    2.00000    1.00000
  | Threshold for basis-dependent cutoff potential is   0.100000E-03
  | Found data for basic radial integration grid :    59 points, outermost radius =    7.000 A
  | Found multiplier for basic radial grid :   2
  | Found angular grid specification: user-specified.
  | Specified grid contains     6 separate shells.
  | Check grid settings after all constraints further below.
  | Found free-atom valence shell :  5 s   1.000
  | Found free-atom valence shell :  4 p   6.000
  | Found free-atom valence shell :  4 d   5.000
  | Found free-ion valence shell :  5 s   0.000
  | Found free-ion valence shell :  4 p   6.000
  | Found free-ion valence shell :  4 d   4.000
  | Found hydrogenic basis function :  4 f   8.400
  | Found hydrogenic basis function :  3 d   2.800
  | Found ionic basis function :  5 p , default cutoff radius.
  | Found hydrogenic basis function :  5 g  12.000
  | Found ionic basis function :  5 s , default cutoff radius.
  Species Mo                  : Missing cutoff potential type.
  Defaulting to exp(1/x)/(1-x)^2 type cutoff potential.
  Species Mo: No 'logarithmic' tag. Using default grid for free atom:
  | Default logarithmic grid data [bohr] : 0.1000E-03 0.1000E+03 0.1012E+01
  | Will include ionic basis functions of  2.0-fold positive Mo                   ion.
  Species Mo: On-site basis accuracy parameter (for Gram-Schmidt orthonormalisation) not specified.
  Using default value basis_acc =  0.1000000E-03.
  Species Mo                  : Using default innermost maximum threshold i_radial=  2 for radial functions.
  Species Mo                  : Default cutoff onset for free atom density etc. : 0.40000000E+01 AA.
  Species Mo                  : Basic radial grid will be enhanced according to radial_multiplier =   2, to contain   119 grid points.
 
  Reading configuration options for species W                   .
  | Found nuclear charge :  74.0000
  | Found atomic mass :    183.840000000000      amu
  | Found l_max for Hartree potential  :   6
  | Found cutoff potl. onset [A], width [A], scale factor :    4.00000    2.00000    1.00000
  | Threshold for basis-dependent cutoff potential is   0.100000E-03
  | Found data for basic radial integration grid :    71 points, outermost radius =    7.000 A
  | Found multiplier for basic radial grid :   2
  | Found angular grid specification: user-specified.
  | Specified grid contains     6 separate shells.
  | Check grid settings after all constraints further below.
  | Found free-atom valence shell :  6 s   2.000
  | Found free-atom valence shell :  5 p   6.000
  | Found free-atom valence shell :  5 d   4.000
  | Found free-atom valence shell :  4 f  14.000
  | Found free-ion valence shell :  6 s   1.000
  | Found free-ion valence shell :  5 p   6.000
  | Found free-ion valence shell :  5 d   3.000
  | Found free-ion valence shell :  4 f  14.000
  | Found hydrogenic basis function :  4 f   7.800
  | Found hydrogenic basis function :  4 d   5.800
  | Found ionic basis function :  6 p , default cutoff radius.
  | Found hydrogenic basis function :  5 g  12.400
  | Found ionic basis function :  6 s , default cutoff radius.
  Species W                   : Missing cutoff potential type.
  Defaulting to exp(1/x)/(1-x)^2 type cutoff potential.
  Species W : No 'logarithmic' tag. Using default grid for free atom:
  | Default logarithmic grid data [bohr] : 0.1000E-03 0.1000E+03 0.1012E+01
  | Will include ionic basis functions of  2.0-fold positive W                    ion.
  Species W : On-site basis accuracy parameter (for Gram-Schmidt orthonormalisation) not specified.
  Using default value basis_acc =  0.1000000E-03.
  Species W                   : Using default innermost maximum threshold i_radial=  2 for radial functions.
  Species W                   : Default cutoff onset for free atom density etc. : 0.40000000E+01 AA.
  Species W                   : Basic radial grid will be enhanced according to radial_multiplier =   2, to contain   143 grid points.
 
  Reading configuration options for species Se                  .
  | Found nuclear charge :  34.0000
  | Found atomic mass :    78.9600000000000      amu
  | Found l_max for Hartree potential  :   6
  | Found cutoff potl. onset [A], width [A], scale factor :    4.00000    2.00000    1.00000
  | Threshold for basis-dependent cutoff potential is   0.100000E-03
  | Found data for basic radial integration grid :    55 points, outermost radius =    7.000 A
  | Found multiplier for basic radial grid :   2
  | Found angular grid specification: user-specified.
  | Specified grid contains     5 separate shells.
  | Check grid settings after all constraints further below.
  | Found free-atom valence shell :  4 s   2.000
  | Found free-atom valence shell :  4 p   4.000
  | Found free-atom valence shell :  3 d  10.000
  | Found free-ion valence shell :  4 s   1.000
  | Found free-ion valence shell :  4 p   3.000
  | Found free-ion valence shell :  3 d  10.000
  | Found hydrogenic basis function :  3 d   4.300
  | Found hydrogenic basis function :  2 p   1.600
  | Found hydrogenic basis function :  4 f   7.200
  | Found ionic basis function :  4 s , default cutoff radius.
  Species Se                  : Missing cutoff potential type.
  Defaulting to exp(1/x)/(1-x)^2 type cutoff potential.
  Species Se: No 'logarithmic' tag. Using default grid for free atom:
  | Default logarithmic grid data [bohr] : 0.1000E-03 0.1000E+03 0.1012E+01
  | Will include ionic basis functions of  2.0-fold positive Se                   ion.
  Species Se: On-site basis accuracy parameter (for Gram-Schmidt orthonormalisation) not specified.
  Using default value basis_acc =  0.1000000E-03.
  Species Se                  : Using default innermost maximum threshold i_radial=  2 for radial functions.
  Species Se                  : Default cutoff onset for free atom density etc. : 0.40000000E+01 AA.
  Species Se                  : Basic radial grid will be enhanced according to radial_multiplier =   2, to contain   111 grid points.
 
  Finished reading input file 'control.in'.
 
------------------------------------------------------------


------------------------------------------------------------
          Reading geometry description geometry.in.
------------------------------------------------------------
  | The smallest distance between any two atoms is         2.49047568 AA.
  | The first atom of this pair is atom number                     22 .
  | The second atom of this pair is atom number                    35 .
  | Wigner-Seitz cell of the first atom image           0     1     0 .
  | (The Wigner-Seitz cell of the second atom is 0 0 0  by definition.)

  Symmetry information by spglib:
  | Precision set to  0.1E-04
  | Number of Operations  : 1
  | Space group           : 1
  | International         : P1
  | Schoenflies           : C1^1
  Input structure read successfully.
  The structure contains       73 atoms,  and a total of       2682.000 electrons.

  Input geometry:
  | Unit cell:
  |       16.60000000        0.00000000        0.00000000
  |       -8.30000000       14.37602170        0.00000000
  |        0.00000000        0.00000000      100.00000000
  | Atomic structure:
  |       Atom                x [A]            y [A]            z [A]
  |    1: Species Mo            0.01900551        0.98697170        2.68614149
  |    2: Species Se            1.72645163        2.05862033        4.26867985
  |    3: Species Se            1.64571439        1.92856703        0.95288134
  |    4: Species Mo           -1.58038732        3.87952877        2.70157516
  |    5: Species Se            0.29187024        4.96048914        4.26544775
  |    6: Species Se            0.01470303        4.80045726        0.92388997
  |    7: Species Mo           -3.28567486        6.71099910        2.68614366
  |    8: Species Se           -1.50383130        7.65386181        4.26868780
  |    9: Species Se           -1.65685528        7.64892811        0.95287853
  |   10: Species Mo           -4.98271442        9.57579581        2.68554759
  |   11: Species Se           -3.28477249       10.52374947        4.31672181
  |   12: Species Se           -3.33265736       10.53923991        1.00561077
  |   13: Species Mo           -6.64848432       12.46089929        2.68553790
  |   14: Species Se           -4.97858042       13.45739899        4.31673838
  |   15: Species Se           -4.98907952       13.40816398        1.00561554
  |   16: Species Mo            3.32150004        0.99754778        2.62575374
  |   17: Species Se            4.92171793        1.99700310        4.29899126
  |   18: Species Se            5.00791322        1.92778665        0.96890157
  |   19: Species Mo            1.76542911        3.91819119        2.52266700
  |   20: Species Se            3.35899281        4.80195385        0.81552022
  |   21: Species Mo            0.12606272        6.75779109        2.52266383
  |   22: Species Se            1.68809372        7.69610399        0.81548721
  |   23: Species Mo           -1.62526274        9.56571821        2.62574726
  |   24: Species Se            0.04041296       10.45189654        4.29895873
  |   25: Species Se            0.02348777       10.56112796        0.96885021
  |   26: Species Mo           -3.31686472       12.46099637        2.67235989
  |   27: Species Se           -1.66729213       13.41341256        4.34769101
  |   28: Species Se           -1.64885496       13.42405825        1.02133996
  |   29: Species Mo            6.63387894        0.96926968        2.68669364
  |   30: Species Se            8.27740204        1.91848921        4.37814322
  |   31: Species Se            8.31840570        1.92022157        1.05042405
  |   32: Species Mo            4.89476467        3.86389970        2.58029108
  |   33: Species Se            6.50679026        4.78038118        4.31676947
  |   34: Species Se            6.63714194        4.76652871        0.99387786
  |   35: Species Mo            3.21106609        6.64599068        2.48290626
  |   36: Species Se            4.73080366        7.52339063        4.26055225
  |   37: Species Se            4.92894928        7.63779166        0.94075255
  |   38: Species Mo            1.64369350        9.49518999        2.58021721
  |   39: Species Se            3.24335510       10.43297322        4.31674075
  |   40: Species Se            3.29652814       10.55277625        0.99378339
  |   41: Species Mo            0.00637986       12.44852210        2.68668258
  |   42: Species Se            1.65017259       13.39728151        4.37813519
  |   43: Species Se            1.67215825       13.43189748        1.05040816
  |   44: Species Mo            9.96504298        0.96135227        2.73021250
  |   45: Species Se           11.63106862        1.92320528        4.40455750
  |   46: Species Se           11.63544148        1.92573627        1.07793179
  |   47: Species Mo            8.28032146        3.83288889        2.71050760
  |   48: Species Se            9.94238264        4.79606547        4.38766426
  |   49: Species Se            9.97044501        4.78179657        1.06520904
  |   50: Species Mo            6.55466408        6.67306587        2.65706159
  |   51: Species Se            8.22128121        7.63510741        4.34740271
  |   52: Species Se            8.27547216        7.64591313        1.04187321
  |   53: Species Mo            4.90634972        9.52804097        2.65703515
  |   54: Species Se            6.57284147       10.49030799        4.34738892
  |   55: Species Se            6.60927959       10.53181040        1.04187552
  |   56: Species Mo            3.30951210       12.44259747        2.71045874
  |   57: Species Se            4.97469570       13.40035452        4.38762148
  |   58: Species Se            4.97638353       13.43177131        1.06518422
  |   59: Species Mo           13.29691553        0.97124109        2.73923999
  |   60: Species Se           14.99688893        1.96267535        4.37606853
  |   61: Species Se           14.94182028        1.94347686        1.06050964
  |   62: Species Mo           11.63960395        3.84185896        2.73925254
  |   63: Species Se           13.34821688        4.81831598        4.37606305
  |   64: Species Se           13.30404711        4.78022906        1.06052186
  |   65: Species Mo            9.94534524        6.70222846        2.71546269
  |   66: Species Se           11.64217156        7.66697151        4.35754532
  |   67: Species Se           11.61161537        7.64816133        1.03936441
  |   68: Species Mo            8.26635086        9.56460282        2.70111068
  |   69: Species Se            9.94847456       10.53572063        4.34838403
  |   70: Species Se            9.93467749       10.52775114        1.03375706
  |   71: Species Mo            6.62697027       12.44979865        2.71544038
  |   72: Species Se            8.31087137       13.43689025        4.35752849
  |   73: Species Se            8.27931563       13.41981540        1.03936000

  Lattice parameters for 3D lattice (in Angstroms) :    16.600000   16.600000  100.000000
  Angle(s) between unit vectors (in degrees)       :    90.000000   90.000000  120.000000


  Quantities derived from the lattice vectors:
  | Reciprocal lattice vector 1:  0.378505  0.218530  0.000000
  | Reciprocal lattice vector 2: -0.000000  0.437060  0.000000
  | Reciprocal lattice vector 3:  0.000000  0.000000  0.062832
  | Unit cell volume                               :   0.238642E+05  A^3

  Fractional coordinates:
                         L1                L2                L3
       atom_frac         0.03547192        0.06865402        0.02686141  Mo
       atom_frac         0.17560221        0.14319819        0.04268680  Se
       atom_frac         0.16621525        0.13415165        0.00952881  Se
       atom_frac         0.03972649        0.26986108        0.02701575  Mo
       atom_frac         0.19010903        0.34505298        0.04265448  Se
       atom_frac         0.16784628        0.33392112        0.00923890  Se
       atom_frac         0.03547725        0.46681893        0.02686144  Mo
       atom_frac         0.17561011        0.53240472        0.04268688  Se
       atom_frac         0.16622021        0.53206153        0.00952879  Se
       atom_frac         0.03288397        0.66609497        0.02685548  Mo
       atom_frac         0.16813958        0.73203489        0.04316722  Se
       atom_frac         0.16579371        0.73311241        0.01005611  Se
       atom_frac         0.03288068        0.86678356        0.02685538  Mo
       atom_frac         0.16813569        0.93610035        0.04316738  Se
       atom_frac         0.16579082        0.93267555        0.01005616  Se
       atom_frac         0.23478521        0.06938970        0.02625754  Mo
       atom_frac         0.36594507        0.13891208        0.04298991  Se
       atom_frac         0.36873020        0.13409737        0.00968902  Se
       atom_frac         0.24262638        0.27255045        0.02522667  Mo
       atom_frac         0.36936158        0.33402522        0.00815520  Se
       atom_frac         0.24263104        0.47007380        0.02522664  Mo
       atom_frac         0.36936394        0.53534310        0.00815487  Se
       atom_frac         0.23478959        0.66539397        0.02625747  Mo
       atom_frac         0.36595291        0.72703678        0.04298959  Se
       atom_frac         0.36873240        0.73463495        0.00968850  Se
       atom_frac         0.23358403        0.86679031        0.02672360  Mo
       atom_frac         0.36608104        0.93304065        0.04347691  Se
       atom_frac         0.36756197        0.93378116        0.01021340  Se
       atom_frac         0.43334259        0.06742266        0.02686694  Mo
       atom_frac         0.56536399        0.13345063        0.04378143  Se
       atom_frac         0.56789435        0.13357114        0.01050424  Se
       atom_frac         0.42925230        0.26877392        0.02580291  Mo
       atom_frac         0.55823763        0.33252462        0.04316769  Se
       atom_frac         0.56560835        0.33156104        0.00993878  Se
       atom_frac         0.42458618        0.46229693        0.02482906  Mo
       atom_frac         0.54665273        0.52332911        0.04260552  Se
       atom_frac         0.56256809        0.53128688        0.00940753  Se
       atom_frac         0.42926169        0.66048801        0.02580217  Mo
       atom_frac         0.55824307        0.72572047        0.04316741  Se
       atom_frac         0.56561303        0.73405400        0.00993783  Se
       atom_frac         0.43334563        0.86592260        0.02686683  Mo
       atom_frac         0.56536727        0.93191856        0.04378135  Se
       atom_frac         0.56789566        0.93432646        0.01050408  Se
       atom_frac         0.63373976        0.06687193        0.02730212  Mo
       atom_frac         0.76755613        0.13377869        0.04404557  Se
       atom_frac         0.76790758        0.13395474        0.01077932  Se
       atom_frac         0.63212295        0.26661680        0.02710508  Mo
       atom_frac         0.76574653        0.33361563        0.04387664  Se
       atom_frac         0.76694076        0.33262308        0.01065209  Se
       atom_frac         0.62694943        0.46418029        0.02657062  Mo
       atom_frac         0.76080798        0.53110016        0.04347403  Se
       atom_frac         0.76444832        0.53185181        0.01041873  Se
       atom_frac         0.62694980        0.66277313        0.02657035  Mo
       atom_frac         0.76080865        0.72970869        0.04347389  Se
       atom_frac         0.76444718        0.73259561        0.01041876  Se
       atom_frac         0.63212344        0.86551048        0.02710459  Mo
       atom_frac         0.76574663        0.93213232        0.04387621  Se
       atom_frac         0.76694098        0.93431768        0.01065184  Se
       atom_frac         0.83479891        0.06755980        0.02739240  Mo
       atom_frac         0.97168916        0.13652423        0.04376069  Se
       atom_frac         0.96770405        0.13518878        0.01060510  Se
       atom_frac         0.83480134        0.26724076        0.02739253  Mo
       atom_frac         0.97169114        0.33516338        0.04376063  Se
       atom_frac         0.96770564        0.33251404        0.01060522  Se
       atom_frac         0.83222161        0.46620884        0.02715463  Mo
       atom_frac         0.96799395        0.53331663        0.04357545  Se
       atom_frac         0.96549900        0.53200819        0.01039364  Se
       atom_frac         0.83063114        0.66531639        0.02701111  Mo
       atom_frac         0.96573950        0.73286761        0.04348384  Se
       atom_frac         0.96463117        0.73231325        0.01033757  Se
       atom_frac         0.83222078        0.86601140        0.02715440  Mo
       atom_frac         0.96799178        0.93467376        0.04357528  Se
       atom_frac         0.96549697        0.93348603        0.01039360  Se

 
  Finished reading input file 'control.in'.
 

------------------------------------------------------------
          Reading geometry description geometry.in.
------------------------------------------------------------
 
  Consistency checks for stacksize environment parameter are next.
 
  | Maximum stacksize for task 0: unlimited
  | Maximum stacksize for task 1: unlimited
  | Maximum stacksize for task 2: unlimited
  | Maximum stacksize for task 3: unlimited
  | Maximum stacksize for task 4: unlimited
  | Maximum stacksize for task 5: unlimited
  | Maximum stacksize for task 6: unlimited
  | Maximum stacksize for task 7: unlimited
  | Maximum stacksize for task 8: unlimited
  | Maximum stacksize for task 9: unlimited
  | Maximum stacksize for task 10: unlimited
  | Maximum stacksize for task 11: unlimited
  | Maximum stacksize for task 12: unlimited
  | Maximum stacksize for task 13: unlimited
  | Maximum stacksize for task 14: unlimited
  | Maximum stacksize for task 15: unlimited
  | Maximum stacksize for task 16: unlimited
  | Maximum stacksize for task 17: unlimited
  | Maximum stacksize for task 18: unlimited
  | Maximum stacksize for task 19: unlimited
  | Maximum stacksize for task 20: unlimited
  | Maximum stacksize for task 21: unlimited
  | Maximum stacksize for task 22: unlimited
  | Maximum stacksize for task 23: unlimited
  | Maximum stacksize for task 24: unlimited
  | Maximum stacksize for task 25: unlimited
  | Maximum stacksize for task 26: unlimited
  | Maximum stacksize for task 27: unlimited
  | Maximum stacksize for task 28: unlimited
  | Maximum stacksize for task 29: unlimited
  | Maximum stacksize for task 30: unlimited
  | Maximum stacksize for task 31: unlimited
  | Maximum stacksize for task 32: unlimited
  | Maximum stacksize for task 33: unlimited
  | Maximum stacksize for task 34: unlimited
  | Maximum stacksize for task 35: unlimited
  | Maximum stacksize for task 36: unlimited
  | Maximum stacksize for task 37: unlimited
  | Maximum stacksize for task 38: unlimited
  | Maximum stacksize for task 39: unlimited
  | Maximum stacksize for task 40: unlimited
  | Maximum stacksize for task 41: unlimited
  | Maximum stacksize for task 42: unlimited
  | Maximum stacksize for task 43: unlimited
  | Maximum stacksize for task 44: unlimited
  | Maximum stacksize for task 45: unlimited
  | Maximum stacksize for task 46: unlimited
  | Maximum stacksize for task 47: unlimited
  | Maximum stacksize for task 48: unlimited
  | Maximum stacksize for task 49: unlimited
  | Maximum stacksize for task 50: unlimited
  | Maximum stacksize for task 51: unlimited
  | Maximum stacksize for task 52: unlimited
  | Maximum stacksize for task 53: unlimited
  | Maximum stacksize for task 54: unlimited
  | Maximum stacksize for task 55: unlimited
  | Maximum stacksize for task 56: unlimited
  | Maximum stacksize for task 57: unlimited
  | Maximum stacksize for task 58: unlimited
  | Maximum stacksize for task 59: unlimited
  | Maximum stacksize for task 60: unlimited
  | Maximum stacksize for task 61: unlimited
  | Maximum stacksize for task 62: unlimited
  | Maximum stacksize for task 63: unlimited
  | Maximum stacksize for task 64: unlimited
  | Maximum stacksize for task 65: unlimited
  | Maximum stacksize for task 66: unlimited
  | Maximum stacksize for task 67: unlimited
  | Maximum stacksize for task 68: unlimited
  | Maximum stacksize for task 69: unlimited
  | Maximum stacksize for task 70: unlimited
  | Maximum stacksize for task 71: unlimited
  | Maximum stacksize for task 72: unlimited
  | Maximum stacksize for task 73: unlimited
  | Maximum stacksize for task 74: unlimited
  | Maximum stacksize for task 75: unlimited
  | Maximum stacksize for task 76: unlimited
  | Maximum stacksize for task 77: unlimited
  | Maximum stacksize for task 78: unlimited
  | Maximum stacksize for task 79: unlimited
  | Current stacksize for task 0: unlimited
  | Current stacksize for task 1: unlimited
  | Current stacksize for task 2: unlimited
  | Current stacksize for task 3: unlimited
  | Current stacksize for task 4: unlimited
  | Current stacksize for task 5: unlimited
  | Current stacksize for task 6: unlimited
  | Current stacksize for task 7: unlimited
  | Current stacksize for task 8: unlimited
  | Current stacksize for task 9: unlimited
  | Current stacksize for task 10: unlimited
  | Current stacksize for task 11: unlimited
  | Current stacksize for task 12: unlimited
  | Current stacksize for task 13: unlimited
  | Current stacksize for task 14: unlimited
  | Current stacksize for task 15: unlimited
  | Current stacksize for task 16: unlimited
  | Current stacksize for task 17: unlimited
  | Current stacksize for task 18: unlimited
  | Current stacksize for task 19: unlimited
  | Current stacksize for task 20: unlimited
  | Current stacksize for task 21: unlimited
  | Current stacksize for task 22: unlimited
  | Current stacksize for task 23: unlimited
  | Current stacksize for task 24: unlimited
  | Current stacksize for task 25: unlimited
  | Current stacksize for task 26: unlimited
  | Current stacksize for task 27: unlimited
  | Current stacksize for task 28: unlimited
  | Current stacksize for task 29: unlimited
  | Current stacksize for task 30: unlimited
  | Current stacksize for task 31: unlimited
  | Current stacksize for task 32: unlimited
  | Current stacksize for task 33: unlimited
  | Current stacksize for task 34: unlimited
  | Current stacksize for task 35: unlimited
  | Current stacksize for task 36: unlimited
  | Current stacksize for task 37: unlimited
  | Current stacksize for task 38: unlimited
  | Current stacksize for task 39: unlimited
  | Current stacksize for task 40: unlimited
  | Current stacksize for task 41: unlimited
  | Current stacksize for task 42: unlimited
  | Current stacksize for task 43: unlimited
  | Current stacksize for task 44: unlimited
  | Current stacksize for task 45: unlimited
  | Current stacksize for task 46: unlimited
  | Current stacksize for task 47: unlimited
  | Current stacksize for task 48: unlimited
  | Current stacksize for task 49: unlimited
  | Current stacksize for task 50: unlimited
  | Current stacksize for task 51: unlimited
  | Current stacksize for task 52: unlimited
  | Current stacksize for task 53: unlimited
  | Current stacksize for task 54: unlimited
  | Current stacksize for task 55: unlimited
  | Current stacksize for task 56: unlimited
  | Current stacksize for task 57: unlimited
  | Current stacksize for task 58: unlimited
  | Current stacksize for task 59: unlimited
  | Current stacksize for task 60: unlimited
  | Current stacksize for task 61: unlimited
  | Current stacksize for task 62: unlimited
  | Current stacksize for task 63: unlimited
  | Current stacksize for task 64: unlimited
  | Current stacksize for task 65: unlimited
  | Current stacksize for task 66: unlimited
  | Current stacksize for task 67: unlimited
  | Current stacksize for task 68: unlimited
  | Current stacksize for task 69: unlimited
  | Current stacksize for task 70: unlimited
  | Current stacksize for task 71: unlimited
  | Current stacksize for task 72: unlimited
  | Current stacksize for task 73: unlimited
  | Current stacksize for task 74: unlimited
  | Current stacksize for task 75: unlimited
  | Current stacksize for task 76: unlimited
  | Current stacksize for task 77: unlimited
  | Current stacksize for task 78: unlimited
  | Current stacksize for task 79: unlimited
 
  Consistency checks for the contents of control.in are next.
 
  MPI_IN_PLACE appears to work with this MPI implementation.
  | Keeping use_mpi_in_place .true. (see manual).
  Target number of points in a grid batch is not set. Defaulting to  100
  Method for grid partitioning is not set. Defaulting to parallel hash+maxmin partitioning.
  Batch size limit is not set. Defaulting to    200
  By default, will store active basis functions for each batch.
  If in need of memory, prune_basis_once .false. can be used to disable this option.
  communication_type for Hartree potential was not specified.
  Defaulting to calc_hartree .
  Defaulting to Pulay charge density mixer.
  Pulay mixer: Number of relevant iterations not set.
  Defaulting to    8 iterations.
  Pulay mixer: Number of initial linear mixing iterations not set.
  Defaulting to    0 iterations.
  Work space size for distributed Hartree potential not set.
  Defaulting to   0.200000E+03 MB.
  Mixing parameter for charge density mixing has not been set.
  Using default: charge_mix_param =     0.0500.
  The mixing parameter will be adjusted in iteration number     2 of the first full s.c.f. cycle only.
  Algorithm-dependent basis array size parameters:
  | n_max_pulay                         :        8
  Maximum number of self-consistency iterations not provided.
  Presetting  1000 iterations.
  Presetting      1001 iterations before the initial mixing cycle
  is restarted anyway using the sc_init_iter criterion / keyword.
  Presetting a factor      1.000 between actual scf density residual
  and density convergence criterion sc_accuracy_rho below which sc_init_iter
  takes no effect.
 * No s.c.f. convergence criteria (sc_accuracy_*) were provided in control.in.
 * The run will proceed with a reasonable default guess, but please check whether.
 * the s.c.f. cycles seem to take too much or too little time.
  Calculation of forces was not defined in control.in. No forces will be calculated.
  Geometry relaxation not requested: no relaxation will be performed.
 * Notice: The s.c.f. convergence criterion sc_accuracy_rho was not provided.
 * We used to stop in this case, and ask the user to provide reasonable
 * scf convergence criteria. However, this led some users to employ criteria
 * that led to extremely long run times, e.g., for simple relaxation.
 * We now preset a default value for sc_accuracy_rho if it is not set.
 * You may still wish to check if this setting is too tight or too loose for your needs.
 * Based on n_atoms, FHI-aims chose sc_accuracy_rho =  0.121667E-04 .
  No accuracy limit for integral partition fn. given. Defaulting to  0.1000E-14.
  No threshold value for u(r) in integrations given. Defaulting to  0.1000E-05.
  No accuracy for occupation numbers given. Defaulting to  0.1000E-12.
  No threshold value for occupation numbers given. Defaulting to  0.0000E+00.
  No accuracy for fermi level given. Defaulting to  0.1000E-19.
  Maximum # of iterations to find E_F not set. Defaulting to  200.
  Preferred method for the eigenvalue solver ('KS_method') not specified in 'control.in'.
  Calling BLACS routine to test compilation state
  Since ScaLAPACK support is enabled, defaulting to ELPA (via ELSI).
  Will not use alltoall communication since running on < 1024 CPUs.
  Threshold for basis singularities not set.
  Default threshold for basis singularities:  0.1000E-04
  partition_type (choice of integration weights) for integrals was not specified.
  | Using a version of the partition function of Stratmann and coworkers ('stratmann_sparse').
  | At each grid point, the set of atoms used to build the partition table is smoothly restricted to
  | only those atoms whose free-atom density would be non-zero at that grid point.
  Partitioning for Hartree potential was not defined. Using partition_type for integrals.
  | Adjusted default value of keyword multip_moments_threshold to:       0.10000000E-11
  | This value may affect high angular momentum components of the Hartree potential in periodic systems.
  Angular momentum expansion for Kerker preconditioner not set explicitly.
  | Using default value of   0
  No explicit requirement for turning off preconditioner.
  | By default, it will be turned off when the charge convergence reaches
  | sc_accuracy_rho  =   0.121667E-04
  No special mixing parameter while Kerker preconditioner is on.
  Using default: charge_mix_param =     0.0500.
  No q(lm)/r^(l+1) cutoff set for long-range Hartree potential.
  | Using default value of  0.100000E-09 .
  | Verify using the multipole_threshold keyword.
  Defaulting to new monopole extrapolation.
  Density update method: automatic selection selected.
  Using density matrix based charge density update.
  Using density matrix based charge density update.
  Using packed matrix style: index .
  Defaulting to use time-reversal symmetry for k-point grid.
  Charge integration errors on the 3D integration grid will be compensated
  by explicit normalization and distribution of residual charges.
  Use the "compensate_multipole_errors" flag to change this behaviour.
  * Volumetric cube output requested. Tightening default wave_threshold to 1d-8
 
  Consistency checks for the contents of geometry.in are next.
 

  Range separation radius for Ewald summation (hartree_convergence_parameter):      5.00000000 bohr.
  Number of empty states per atom not set in control.in - providing a guess from actual geometry.
  | Total number of empty states used during s.c.f. cycle:      402
  If you use a very high smearing, use empty_states (per atom!) in control.in to increase this value.

  Structure-dependent array size parameters: 
  | Maximum number of distinct radial functions  :       57
  | Maximum number of basis functions            :     2857
  | Number of Kohn-Sham states (occupied + empty):     1743
------------------------------------------------------------
 Error: The dipole correction needs vacuum z-level to be defined
 Vacuum level will be determined automatically.
 Determine position of vacuum level automatically
 **WARNING** : This feature is experimental and still requires some testing
 **PLEASE ** : If you see it fail, please report.
 Vacuum level determined:
 set_vacuum_level    52.6100223550000

------------------------------------------------------------
          Preparing all fixed parts of the calculation.
------------------------------------------------------------
  Determining machine precision:
    2.225073858507201E-308
  Setting up grids for atomic and cluster calculations.

  Creating wave function, potential, and density for free atoms.

  Species: S

  List of occupied orbitals and eigenvalues:
    n    l              occ      energy [Ha]    energy [eV]
    1    0           2.0000       -88.680731     -2413.1255
    2    0           2.0000        -7.781719      -211.7513
    3    0           2.0000        -0.633662       -17.2428
    2    1           6.0000        -5.751976      -156.5192
    3    1           4.0000        -0.257086        -6.9957


  Species: Mo

  List of occupied orbitals and eigenvalues:
    n    l              occ      energy [Ha]    energy [eV]
    1    0           2.0000      -745.344654    -20281.8600
    2    0           2.0000      -103.288246     -2810.6162
    3    0           2.0000       -17.516687      -476.6533
    4    0           2.0000        -2.358559       -64.1796
    5    0           1.0000        -0.145159        -3.9500
    2    1           6.0000       -92.308627     -2511.8455
    3    1           6.0000       -13.936005      -379.2180
    4    1           6.0000        -1.408138       -38.3174
    3    2          10.0000        -8.119011      -220.9295
    4    2           5.0000        -0.132984        -3.6187


  Species: W

  List of occupied orbitals and eigenvalues:
    n    l              occ      energy [Ha]    energy [eV]
    1    0           2.0000     -2764.899999    -75236.7570
    2    0           2.0000      -447.822848    -12185.8797
    3    0           2.0000      -101.923634     -2773.4832
    4    0           2.0000       -20.945301      -569.9506
    5    0           2.0000        -2.899582       -78.9016
    6    0           2.0000        -0.207066        -5.6345
    2    1           6.0000      -391.021390    -10640.2334
    3    1           6.0000       -85.417793     -2324.3364
    4    1           6.0000       -15.562838      -423.4864
    5    1           6.0000        -1.582233       -43.0547
    3    2          10.0000       -66.517936     -1810.0451
    4    2          10.0000        -8.758436      -238.3292
    5    2           4.0000        -0.161873        -4.4048
    4    3          14.0000        -1.221948       -33.2509


  Species: Se

  List of occupied orbitals and eigenvalues:
    n    l              occ      energy [Ha]    energy [eV]
    1    0           2.0000      -466.337810    -12689.6975
    2    0           2.0000       -59.202598     -1610.9847
    3    0           2.0000        -7.847116      -213.5309
    4    0           2.0000        -0.634372       -17.2621
    2    1           6.0000       -52.061107     -1416.6548
    3    1           6.0000        -5.620941      -152.9536
    4    1           4.0000        -0.238469        -6.4891
    3    2          10.0000        -1.951949       -53.1152


  Adding cutoff potential to free-atom effective potential.
  Creating fixed part of basis set: Ionic, confined, hydrogenic.
 
  S                    ion:

  List of free ionic orbitals and eigenvalues:
    n    l      energy [Ha]    energy [eV]
    1    0       -89.703778     -2440.9640
    2    0        -8.775428      -238.7916
    3    0        -1.470343       -40.0101
    2    1        -6.747660      -183.6132
    3    1        -1.048627       -28.5346


  List of ionic basis orbitals and eigenvalues:
    n    l      energy [Ha]    energy [eV]    outer radius [A]
    3    2        -0.495605       -13.4861       5.587574
    3    0        -1.470336       -40.0099       4.166788

 
  S                    hydrogenic:
 
  List of hydrogenic basis orbitals: 
    n    l      effective z      eigenvalue [eV]  inner max. [A]     outer max. [A]     outer radius [A]   
    2    1         1.800000       -11.0118           1.168531           1.168531           5.587574
    4    3         7.000000       -41.6672           1.212182           1.212182           5.256262
    4    2         6.200000       -32.6848           0.582121           1.814567           5.587574
    5    4        10.800000       -63.4785           1.227092           1.227092           4.944596
 
 
  Mo                   ion:

  List of free ionic orbitals and eigenvalues:
    n    l      energy [Ha]    energy [eV]
    1    0      -746.048685    -20301.0176
    2    0      -103.980912     -2829.4646
    3    0       -18.206601      -495.4268
    4    0        -3.040545       -82.7374
    2    1       -93.001013     -2530.6863
    3    1       -14.625827      -397.9890
    4    1        -2.084855       -56.7318
    3    2        -8.808854      -239.7011
    4    2        -0.765435       -20.8285


  List of ionic basis orbitals and eigenvalues:
    n    l      energy [Ha]    energy [eV]    outer radius [A]
    5    1        -0.465587       -12.6693       5.591446
    5    0        -0.650331       -17.6964       5.591446

 
  Mo                   hydrogenic:
 
  List of hydrogenic basis orbitals: 
    n    l      effective z      eigenvalue [eV]  inner max. [A]     outer max. [A]     outer radius [A]   
    4    3         8.400000       -60.0010           1.009788           1.009788           4.654634
    3    2         2.800000       -11.8048           1.687401           1.687401           5.591446
    5    4        12.000000       -78.3687           1.100005           1.100005           4.654634
 
 
  W                    ion:

  List of free ionic orbitals and eigenvalues:
    n    l      energy [Ha]    energy [eV]
    1    0     -2765.664016    -75257.5469
    2    0      -448.543169    -12205.4806
    3    0      -102.635476     -2792.8534
    4    0       -21.655379      -589.2728
    5    0        -3.604872       -98.0936
    6    0        -0.752243       -20.4696
    2    1      -391.740682    -10659.8063
    3    1       -86.129333     -2343.6984
    4    1       -16.272893      -442.8080
    5    1        -2.280103       -62.0448
    3    2       -67.229405     -1829.4052
    4    2        -9.468448      -257.6496
    5    2        -0.806537       -21.9470
    4    3        -1.931058       -52.5468


  List of ionic basis orbitals and eigenvalues:
    n    l      energy [Ha]    energy [eV]    outer radius [A]
    6    1        -0.508246       -13.8301       5.568868
    6    0        -0.752227       -20.4691       5.568868

 
  W                    hydrogenic:
 
  List of hydrogenic basis orbitals: 
    n    l      effective z      eigenvalue [eV]  inner max. [A]     outer max. [A]     outer radius [A]   
    4    3         7.800000       -51.7355           1.082252           1.082252           4.928043
    4    2         5.800000       -28.5979           0.616741           1.946131           5.568868
    5    4        12.400000       -83.6803           1.069102           1.069102           4.523866
 
 
  Se                   ion:

  List of free ionic orbitals and eigenvalues:
    n    l      energy [Ha]    energy [eV]
    1    0      -467.261007    -12714.8189
    2    0       -60.104893     -1635.5374
    3    0        -8.743714      -237.9286
    4    0        -1.414053       -38.4783
    2    1       -52.964156     -1441.2280
    3    1        -6.516916      -177.3343
    4    1        -0.961869       -26.1738
    3    2        -2.844511       -77.4031


  List of ionic basis orbitals and eigenvalues:
    n    l      energy [Ha]    energy [eV]    outer radius [A]
    4    0        -1.414046       -38.4782       4.287795

 
  Se                   hydrogenic:
 
  List of hydrogenic basis orbitals: 
    n    l      effective z      eigenvalue [eV]  inner max. [A]     outer max. [A]     outer radius [A]   
    3    2         4.300000       -27.9518           1.103845           1.103845           5.475439
    2    1         1.600000        -8.6828           1.326010           1.326010           5.610963
    4    3         7.200000       -44.0822           1.173422           1.173422           5.214131
 
  Creating atomic-like basis functions for current effective potential.

  Species S                   :

  List of atomic basis orbitals and eigenvalues:
    n    l      energy [Ha]    energy [eV]    outer radius [A]
    1    0       -88.680731     -2413.1255       0.871402
    2    0        -7.781719      -211.7513       2.923031
    3    0        -0.633662       -17.2428       5.452614
    2    1        -5.751976      -156.5192       3.303131
    3    1        -0.257086        -6.9957       5.587574


  Species Mo                  :

  List of atomic basis orbitals and eigenvalues:
    n    l      energy [Ha]    energy [eV]    outer radius [A]
    1    0      -745.344654    -20281.8600       0.312279
    2    0      -103.288246     -2810.6162       0.850943
    3    0       -17.516687      -476.6533       2.051947
    4    0        -2.358559       -64.1796       4.948023
    5    0        -0.145159        -3.9500       5.591446
    2    1       -92.308627     -2511.8455       0.882731
    3    1       -13.936005      -379.2180       2.235275
    4    1        -1.408138       -38.3174       5.259905
    3    2        -8.119011      -220.9295       2.785462
    4    2        -0.132984        -3.6187       5.591446


  Species W                   :

  List of atomic basis orbitals and eigenvalues:
    n    l      energy [Ha]    energy [eV]    outer radius [A]
    1    0     -2764.899999    -75236.7570       0.164704
    2    0      -447.822848    -12185.8797       0.422198
    3    0      -101.923634     -2773.4832       0.889980
    4    0       -20.945301      -569.9506       1.922484
    5    0        -2.899582       -78.9016       4.750581
    6    0        -0.207066        -5.6345       5.568868
    2    1      -391.021390    -10640.2334       0.443357
    3    1       -85.417793     -2324.3364       0.957714
    4    1       -15.562838      -423.4864       2.172477
    5    1        -1.582233       -43.0547       5.175013
    3    2       -66.517936     -1810.0451       1.043279
    4    2        -8.758436      -238.3292       2.740506
    5    2        -0.161873        -4.4048       5.568868
    4    3        -1.221948       -33.2509       5.112134


  Species Se                  :

  List of atomic basis orbitals and eigenvalues:
    n    l      energy [Ha]    energy [eV]    outer radius [A]
    1    0      -466.337810    -12689.6975       0.390501
    2    0       -59.202598     -1610.9847       1.103845
    3    0        -7.847116      -213.5309       2.971370
    4    0        -0.634372       -17.2621       5.475439
    2    1       -52.061107     -1416.6548       1.145080
    3    1        -5.620941      -152.9536       3.399057
    4    1        -0.238469        -6.4891       5.542786
    3    2        -1.951949       -53.1152       4.904963

  Assembling full basis from fixed parts.
  | Species S :   atomic orbital   1 s accepted.
  | Species S :   atomic orbital   2 s accepted.
  | Species S :    ionic orbital   3 s accepted.
  | Species S :   atomic orbital   3 s accepted.
  | Species S :   atomic orbital   2 p accepted.
  | Species S :   atomic orbital   3 p accepted.
  | Species S :    hydro orbital   2 p accepted.
  | Species S :    ionic orbital   3 d accepted.
  | Species S :    hydro orbital   4 d accepted.
  | Species S :    hydro orbital   4 f accepted.
  | Species S :    hydro orbital   5 g accepted.
  | Species Mo :   atomic orbital   1 s accepted.
  | Species Mo :   atomic orbital   2 s accepted.
  | Species Mo :   atomic orbital   3 s accepted.
  | Species Mo :   atomic orbital   4 s accepted.
  | Species Mo :   atomic orbital   5 s accepted.
  | Species Mo :    ionic orbital   5 s accepted.
  | Species Mo :   atomic orbital   2 p accepted.
  | Species Mo :   atomic orbital   3 p accepted.
  | Species Mo :   atomic orbital   4 p accepted.
  | Species Mo :    ionic orbital   5 p accepted.
  | Species Mo :   atomic orbital   3 d accepted.
  | Species Mo :   atomic orbital   4 d accepted.
  | Species Mo :    hydro orbital   3 d accepted.
  | Species Mo :    hydro orbital   4 f accepted.
  | Species Mo :    hydro orbital   5 g accepted.
  | Species W :   atomic orbital   1 s accepted.
  | Species W :   atomic orbital   2 s accepted.
  | Species W :   atomic orbital   3 s accepted.
  | Species W :   atomic orbital   4 s accepted.
  | Species W :   atomic orbital   5 s accepted.
  | Species W :   atomic orbital   6 s accepted.
  | Species W :    ionic orbital   6 s accepted.
  | Species W :   atomic orbital   2 p accepted.
  | Species W :   atomic orbital   3 p accepted.
  | Species W :   atomic orbital   4 p accepted.
  | Species W :   atomic orbital   5 p accepted.
  | Species W :    ionic orbital   6 p accepted.
  | Species W :   atomic orbital   3 d accepted.
  | Species W :   atomic orbital   4 d accepted.
  | Species W :   atomic orbital   5 d accepted.
  | Species W :    hydro orbital   4 d accepted.
  | Species W :    hydro orbital   4 f accepted.
  | Species W :   atomic orbital   4 f accepted.
  | Species W :    hydro orbital   5 g accepted.
  | Species Se :   atomic orbital   1 s accepted.
  | Species Se :   atomic orbital   2 s accepted.
  | Species Se :   atomic orbital   3 s accepted.
  | Species Se :    ionic orbital   4 s accepted.
  | Species Se :   atomic orbital   4 s accepted.
  | Species Se :   atomic orbital   2 p accepted.
  | Species Se :   atomic orbital   3 p accepted.
  | Species Se :   atomic orbital   4 p accepted.
  | Species Se :    hydro orbital   2 p accepted.
  | Species Se :   atomic orbital   3 d accepted.
  | Species Se :    hydro orbital   3 d accepted.
  | Species Se :    hydro orbital   4 f accepted.
 
  Basis size parameters after reduction:
  | Total number of radial functions:       57
  | Total number of basis functions :     2857
 
  Per-task memory consumption for arrays in subroutine allocate_ext:
  |          21.717912MB.
  Testing on-site integration grid accuracy.
  |  Species  Function  <phi|h_atom|phi> (log., in eV)  <phi|h_atom|phi> (rad., in eV)
           1        1              -2413.1254568977              -2413.1254096663
           1        2               -211.7513411281               -211.7513404762
           1        3                -16.9725280787                -16.9725279206
           1        4                  7.6024436204                  7.6024549059
           1        5               -156.5192206929               -156.5192205451
           1        6                 -6.9959757887                 -6.9959777655
           1        7                  6.8896462808                  6.8895564741
           1        8                  6.0214250550                  6.0214220200
           1        9                 19.6206468977                 19.6206494558
           1       10                 24.7008710786                 24.7008710738
           1       11                 47.5292252001                 47.5292260486
           2       12             -20281.8599610543             -20281.8584300616
           2       13              -2810.6161812280              -2810.6161551921
           2       14               -476.6533163555               -476.6533136395
           2       15                -64.1796433667                -64.1796426456
           2       16                 -3.9595702532                 -3.9596328763
           2       17                  5.0608548288                  5.0603628221
           2       18              -2511.8455406047              -2511.8455385741
           2       19               -379.2179896350               -379.2179882338
           2       20                -38.3173891619                -38.3173886619
           2       21                  0.2493245095                  0.2492931069
           2       22               -220.9295301098               -220.9295297081
           2       23                 -3.6195697699                 -3.6195754704
           2       24                  7.1428000922                  7.1426882355
           2       25                 23.3975871087                 23.3975871819
           2       26                 50.2449608881                 50.2449608586
           3       27             -75236.7569897398             -75236.7398021816
           3       28             -12185.8796968880             -12185.8793671389
           3       29              -2773.4831911435              -2773.4831624928
           3       30               -569.9506420417               -569.9506363235
           3       31                -78.9016401752                -78.9016385968
           3       32                 -5.6381498812                 -5.6381407171
           3       33                  5.0326501766                  5.0327702725
           3       34             -10640.2333851158             -10640.2333803363
           3       35              -2324.3364165327              -2324.3364072919
           3       36               -423.4863614587               -423.4863574859
           3       37                -43.0547390741                -43.0547381500
           3       38                 -0.2794590886                 -0.2794514857
           3       39              -1810.0451240061              -1810.0451202456
           3       40               -238.3291788477               -238.3291766726
           3       41                 -4.4054312547                 -4.4054293963
           3       42                  8.2928303329                  8.2928369211
           3       43                 17.5443472769                 17.5443472707
           3       44                -29.4388907480                -29.4388903130
           3       45                 49.8060668072                 49.8060668107
           4       46             -12689.6974611609             -12689.6967666984
           4       47              -1610.9846578580              -1610.9846472470
           4       48               -213.5308789869               -213.5308777267
           4       49                -17.0464428502                -17.0464426496
           4       50                  6.7356859379                  6.7356842047
[...]
   1662       0.00000           0.337456            9.18263
   1663       0.00000           0.340931            9.27719
   1664       0.00000           0.341663            9.29713
   1665       0.00000           0.342416            9.31760
   1666       0.00000           0.343031            9.33436
   1667       0.00000           0.343306            9.34184
   1668       0.00000           0.343948            9.35931
   1669       0.00000           0.344618            9.37752
   1670       0.00000           0.347324            9.45116
   1671       0.00000           0.350411            9.53517
   1672       0.00000           0.352218            9.58433
   1673       0.00000           0.353838            9.62842
   1674       0.00000           0.355488            9.67333
   1675       0.00000           0.357669            9.73268
   1676       0.00000           0.358152            9.74582
   1677       0.00000           0.358671            9.75992
   1678       0.00000           0.359163            9.77333
   1679       0.00000           0.360162            9.80050
   1680       0.00000           0.360389            9.80669
   1681       0.00000           0.361045            9.82452
   1682       0.00000           0.361878            9.84720
   1683       0.00000           0.362858            9.87388
   1684       0.00000           0.363630            9.89486
   1685       0.00000           0.363865            9.90126
   1686       0.00000           0.363928            9.90298
   1687       0.00000           0.367230            9.99283
   1688       0.00000           0.368105           10.01663
   1689       0.00000           0.368912           10.03861
   1690       0.00000           0.369110           10.04400
   1691       0.00000           0.371682           10.11397
   1692       0.00000           0.375943           10.22992
   1693       0.00000           0.376348           10.24096
   1694       0.00000           0.379763           10.33388
   1695       0.00000           0.380202           10.34581
   1696       0.00000           0.384836           10.47193
   1697       0.00000           0.384905           10.47380
   1698       0.00000           0.388149           10.56208
   1699       0.00000           0.388187           10.56311
   1700       0.00000           0.389124           10.58859
   1701       0.00000           0.391622           10.65658
   1702       0.00000           0.393372           10.70420
   1703       0.00000           0.394556           10.73642
   1704       0.00000           0.397703           10.82205
   1705       0.00000           0.400338           10.89376
   1706       0.00000           0.405085           11.02292
   1707       0.00000           0.409550           11.14442
   1708       0.00000           0.409684           11.14808
   1709       0.00000           0.412157           11.21536
   1710       0.00000           0.412968           11.23744
   1711       0.00000           0.417211           11.35289
   1712       0.00000           0.419178           11.40642
   1713       0.00000           0.421801           11.47780
   1714       0.00000           0.423680           11.52891
   1715       0.00000           0.426099           11.59474
   1716       0.00000           0.431066           11.72992
   1717       0.00000           0.432223           11.76138
   1718       0.00000           0.438309           11.92698
   1719       0.00000           0.438911           11.94336
   1720       0.00000           0.440348           11.98248
   1721       0.00000           0.443071           12.05659
   1722       0.00000           0.444414           12.09312
   1723       0.00000           0.444696           12.10079
   1724       0.00000           0.448521           12.20487
   1725       0.00000           0.448984           12.21746
   1726       0.00000           0.451555           12.28742
   1727       0.00000           0.453321           12.33550
   1728       0.00000           0.455133           12.38480
   1729       0.00000           0.458118           12.46603
   1730       0.00000           0.460041           12.51836
   1731       0.00000           0.460067           12.51907
   1732       0.00000           0.462351           12.58120
   1733       0.00000           0.467349           12.71722
   1734       0.00000           0.467458           12.72018
   1735       0.00000           0.468354           12.74455
   1736       0.00000           0.472178           12.84861
   1737       0.00000           0.472989           12.87069
   1738       0.00000           0.474044           12.89938
   1739       0.00000           0.475421           12.93686
   1740       0.00000           0.476747           12.97294
   1741       0.00000           0.478656           13.02489
   1742       0.00000           0.479241           13.04082
   1743       0.00000           0.481039           13.08975

  What follows are estimated values for band gap, HOMO, LUMO, etc.
  | They are estimated on a discrete k-point grid and not necessarily exact.
  | For converged numbers, create a DOS and/or band structure plot on a denser k-grid.

  Highest occupied state (VBM) at     -5.44309903 eV (relative to internal zero)
  | Occupation number:      2.00000000
  | K-point:       1 at    0.000000    0.000000    0.000000 (in units of recip. lattice)

  Lowest unoccupied state (CBM) at    -4.51932967 eV (relative to internal zero)
  | Occupation number:      0.00000000
  | K-point:       3 at    0.500000    0.000000    0.000000 (in units of recip. lattice)

  ESTIMATED overall HOMO-LUMO gap:      0.92376937 eV between HOMO at k-point 1 and LUMO at k-point 3
  | This appears to be an indirect band gap.
  | Smallest direct gap :      0.93298847 eV for k_point 1 at    0.000000    0.000000    0.000000 (in units of recip. lattice)
  The gap value is above 0.2 eV. Unless you are using a very sparse k-point grid,
  this system is most likely an insulator or a semiconductor.

  Writing energy levels:
  | Potential vacuum level, "upper" slab surface:    -0.02938212 eV
  | Potential vacuum level, "lower" slab surface:    -0.06496941 eV
  | Work function ("upper" slab surface)        :     4.84419021 eV
  | Work function ("lower" slab surface)        :     4.80860293 eV
  *** Warning: band gap may exist, check the suitability to define work function using chemical potential.
  | VBM (reference: upper vacuum level)         :     5.41371691 eV
  | CBM (reference: upper vacuum level)         :     4.48994754 eV

  Self-consistency cycle converged.


------------------------------------------------------------
  End self-consistency iteration #    22       :  max(cpu_time)    wall_clock(cpu1)
  | Time for this iteration                    :        9.094 s           9.102 s
  | Charge density update                      :        0.000 s           0.000 s
  | Density mixing                             :        0.728 s           0.729 s
  | Hartree multipole update                   :        0.012 s           0.012 s
  | Hartree multipole summation                :        4.062 s           4.064 s
  | Integration                                :        3.557 s           3.559 s
  | Solution of K.-S. eqns.                    :        0.724 s           0.725 s
  | Total energy evaluation                    :        0.001 s           0.001 s

  Partial memory accounting:
  | Current value for overall tracked memory usage:
  |   Minimum:       50.917 MB (on task 19)
  |   Maximum:       51.386 MB (on task  0)
  |   Average:       51.235 MB
  | Peak value for overall tracked memory usage:
  |   Minimum:      118.372 MB (on task 19 after allocating temp_ham_ovlp)
  |   Maximum:      118.840 MB (on task  0 after allocating temp_ham_ovlp)
  |   Average:      118.689 MB
  | Largest tracked array allocation so far:
  |   Minimum:       33.728 MB (overlap_matrix on task  0)
  |   Maximum:       33.728 MB (overlap_matrix on task  0)
  |   Average:       33.728 MB
  Note:  These values currently only include a subset of arrays which are explicitly tracked.
  The "true" memory usage will be greater.
------------------------------------------------------------
  Obtaining max. number of non-zero basis functions in each batch .
  Evaluating KS electron density on previously omitted grid points, using the density matrix.
  Evaluating density matrix
  Finished density matrix calculation
  | Time :     0.054 s

  Entering Libmbd.
  Libmbd: VdW method: mbd-nl
  Libmbd: Evaluating kinetic energy density...

  Evaluating density matrix
  Finished density matrix calculation
  | Time :     0.050 s

  Libmbd: Performing Hirshfeld analysis...
  Libmbd: Calculating MBD energy...
  Libmbd: Evaluated energy: -0.73785791761932273

  Leaving Libmbd.


  Total energy components:
  | Sum of eigenvalues            :     -130584.84987418 Ha    -3553394.55980102 eV
  | XC energy correction          :       -7340.92984479 Ha     -199756.86459423 eV
  | XC potential correction       :        9558.88134469 Ha      260110.39566024 eV
  | Free-atom electrostatic energy:      -91218.44300203 Ha    -2482180.12601950 eV
  | Hartree energy correction     :           0.83452900 Ha          22.70868953 eV
  | vdW energy correction         :          -0.73785792 Ha         -20.07813550 eV
  | Entropy correction            :           0.00000000 Ha           0.00000000 eV
  | ---------------------------
  | Total energy                  :     -219585.24470523 Ha    -5975218.52420048 eV
  | Total energy, T -> 0          :     -219585.24470523 Ha    -5975218.52420048 eV  <-- do not rely on this value for anything but (periodic) metals
  | Electronic free energy        :     -219585.24470523 Ha    -5975218.52420048 eV

  Derived energy quantities:
  | Kinetic energy                :      225174.70381610 Ha     6127315.44521364 eV
  | Electrostatic energy          :     -437418.28081862 Ha   -11902757.02668438 eV
  | Energy correction for multipole
  | error in Hartree potential    :          -0.01478224 Ha          -0.40224532 eV
  | Sum of eigenvalues per atom                           :      -48676.63780549 eV
  | Total energy (T->0) per atom                          :      -81852.30855069 eV  <-- do not rely on this value for anything but (periodic) metals
  | Electronic free energy per atom                       :      -81852.30855069 eV
  Timings for VdW correction (Tkatchenko-Scheffler 2009 or later):
  | CPU time:        8.901 s, Wall clock time:        8.967 s.

  Energy and forces in a compact form:
  | Total energy uncorrected      :         -0.597521852420048E+07 eV
  | Total energy corrected        :         -0.597521852420048E+07 eV  <-- do not rely on this value for anything but (periodic) metals
  | Electronic free energy        :         -0.597521852420048E+07 eV

  ------------------------------------ 
  Start decomposition of the XC Energy 
  ------------------------------------ 
  X and C from original XC functional choice 
  Hartree-Fock Energy :          0.000000000 Ha              0.000000000 eV
  X Energy            :      -7205.474641078 Ha        -196070.940963386 eV
  C Energy            :       -135.455203716 Ha          -3685.923630839 eV
  Total XC Energy     :      -7340.929844794 Ha        -199756.864594225 eV
  ------------------------------------ 
  LDA X and C from self-consistent density 
  X Energy LDA        :      -6836.619323183 Ha        -186033.877083251 eV
  C Energy LDA        :       -245.508117543 Ha          -6680.615784330 eV
  ------------------------------------ 
  End decomposition of the XC Energy 
  ------------------------------------ 

------------------------------------------------------------

  ------------------------------------------------------------
                      Starting Cube Output
  ------------------------------------------------------------

  The following cube files will be created:

  --------------------------------------
    Cube file:            1
    cube origin       4.1500      7.1880      2.6100
    cube edge 100      0.1660      0.0000      0.0000
    cube edge 100     -0.0830      0.1438      0.0000
    cube edge 109      0.0000      0.0000      0.1000
    cube filename: cube_001_stm_01.cube
  --------------------------------------

  * WARNING: The output  of  the cube file is in 1/Ang^3  or
  * WARNING: 1/Ang^3/2,  but  the cube voxel  definition  is
  * WARNING: in atomic units. Be careful when postprocessing
  * WARNING: Consistent units can be chosen in control.in by
  *               cube_content_unit  bohr

  Evaluating density matrix
  Finished density matrix calculation
  | Time :     0.045 s
 
   Starting cube            1
   Cube will be divided in
     100 minicubes along the first,
     100 minicubes along the second, and
     109 minicubes along the third cube edge
   Dividing grid points on processors

      => Writing 4257kB binary STM file for WSxM.

   Cube file 1 finished.

  Cube output                                             :  max(cpu_time)    wall_clock(cpu1)
  | Total time for cube output                            :         68.945              69.098
------------------------------------------------------------

------------------------------------------------------------------------------
  Final output of selected total energy values:

  The following output summarizes some interesting total energy values
  at the end of a run (AFTER all relaxation, molecular dynamics, etc.).

  | Total energy of the DFT / Hartree-Fock s.c.f. calculation      :       -5975218.524200476 eV
  | Final zero-broadening corrected energy (caution - metals only) :       -5975218.524200476 eV
  | For reference only, the value of 1 Hartree used in FHI-aims is :             27.211384500 eV
  | For reference only, the overall average (free atom contribution
  | + realspace contribution) of the electrostatic potential after
  | s.c.f. convergence is                                          :             -1.195362106 eV

  Before relying on these values, please be sure to understand exactly which
  total energy value is referred to by a given number. Different objects may
  all carry the same name 'total energy'. Definitions:

  Total energy of the DFT / Hartree-Fock s.c.f. calculation:
  | Note that this energy does not include ANY quantities calculated after the
  | s.c.f. cycle, in particular not ANY RPA, MP2, etc. many-body perturbation terms.

  Final zero-broadening corrected energy:
  | For metallic systems only, a broadening of the occupation numbers at the Fermi
  | level can be extrapolated back to zero broadening by an electron-gas inspired
  | formula. For all systems that are not real metals, this value can be
  | meaningless and should be avoided.

------------------------------------------------------------------------------
  Methods described in the following list of references were used in this FHI-aims run.
  If you publish the results, please make sure to cite these reference if they apply.
  FHI-aims is an academic code, and for our developers (often, Ph.D. students
  and postdocs), scientific credit in the community is essential.
  Thank you for helping us!

  For any use of FHI-aims, please cite:

    Volker Blum, Ralf Gehrke, Felix Hanke, Paula Havu, Ville Havu,
    Xinguo Ren, Karsten Reuter, and Matthias Scheffler
    'Ab initio molecular simulations with numeric atom-centered orbitals'
    Computer Physics Communications 180, 2175-2196 (2009)
    http://dx.doi.org/10.1016/j.cpc.2009.06.022


  The provided symmetry information was generated with SPGlib:

    Atsushi Togo, Yusuke Seto, Dimitar Pashov
    SPGlib 1.7.3 obtained from http://spglib.sourceforge.net
    Copyright (C) 2008 Atsushi Togo


  The ELSI infrastructure was used in your run to solve the Kohn-Sham electronic structure.
  Please check out http://elsi-interchange.org to learn more.
  If scalability is important for your project, please acknowledge ELSI by citing:

    V. W-z. Yu, F. Corsetti, A. Garcia, W. P. Huhn, M. Jacquelin, W. Jia,
    B. Lange, L. Lin, J. Lu, W. Mi, A. Seifitokaldani, A. Vazquez-Mayagoitia,
    C. Yang, H. Yang, and V. Blum
    'ELSI: A unified software interface for Kohn-Sham electronic structure solvers'
    Computer Physics Communications 222, 267-285 (2018).
    http://dx.doi.org/10.1016/j.cpc.2017.09.007


  For the real-space grid partitioning and parallelization used in this calculation, please cite:

    Ville Havu, Volker Blum, Paula Havu, and Matthias Scheffler,
    'Efficient O(N) integration for all-electron electronic structure calculation'
    'using numerically tabulated basis functions'
    Journal of Computational Physics 228, 8367-8379 (2009).
    http://dx.doi.org/10.1016/j.jcp.2009.08.008

  Of course, there are many other important community references, e.g., those cited in the
  above references. Our list is limited to references that describe implementations in the
  FHI-aims code. The reason is purely practical (length of this list) - please credit others as well.

 * A warning regarding the cube file format (cube_content_unit legacy)
 * was issued above. The output is Angstrom-based but the cube voxel
 * definition is in atomic units. Please check carefully.

------------------------------------------------------------
          Leaving FHI-aims.
          Date     :  20210913, Time     :  163219.792

          Computational steps:
          | Number of self-consistency cycles          :           22
          | Number of SCF (re)initializations          :            1

          Detailed time accounting                     :  max(cpu_time)    wall_clock(cpu1)
          | Total time                                 :      429.878 s         430.928 s
          | Preparation time                           :        1.063 s           1.087 s
          | Boundary condition initalization           :        1.424 s           1.424 s
          | Grid partitioning                          :        2.415 s           2.410 s
          | Preloading free-atom quantities on grid    :        1.154 s           1.170 s
          | Free-atom superposition energy             :        0.160 s           0.162 s
          | Total time for integrations                :       84.639 s          84.717 s
          | Total time for solution of K.-S. equations :       17.113 s          17.165 s
          | Total time for density update              :      134.601 s         134.714 s
          | Total time for mixing & preconditioning    :       18.890 s          18.900 s
          | Total time for Hartree multipole update    :        0.287 s           0.288 s
          | Total time for Hartree multipole sum       :       89.314 s          89.366 s
          | Total time for total energy evaluation     :        0.027 s           0.024 s
          | Total time for scaled ZORA corrections     :        0.000 s           0.000 s
          | Total time for vdW correction              :        8.901 s           8.967 s
          | Total time for cube output                 :       68.945 s          69.098 s

          Partial memory accounting:
          | Residual value for overall tracked memory usage across tasks:     0.000000 MB (should be 0.000000 MB)
          | Peak values for overall tracked memory usage:
          |   Minimum:      118.372 MB (on task 19 after allocating temp_ham_ovlp)
          |   Maximum:      118.840 MB (on task  0 after allocating temp_ham_ovlp)
          |   Average:      118.689 MB
          | Largest tracked array allocation:
          |   Minimum:       33.728 MB (overlap_matrix on task  0)
          |   Maximum:       33.728 MB (overlap_matrix on task  0)
          |   Average:       33.728 MB
          Note:  These values currently only include a subset of arrays which are explicitly tracked.
          The "true" memory usage will be greater.

          Have a nice day.
------------------------------------------------------------
