------------------------------------------------------------
          Invoking FHI-aims ...

          When using FHI-aims, please cite the following reference:

            Volker Blum, Ralf Gehrke, Felix Hanke, Paula Havu,
            Ville Havu, Xinguo Ren, Karsten Reuter, and Matthias Scheffler,
            'Ab Initio Molecular Simulations with Numeric Atom-Centered Orbitals',
            Computer Physics Communications 180, 2175-2196 (2009)

          In addition, many other developments in FHI-aims are likely important for
          your particular application. A partial list of references is given at the end of
          this file. Thank you for giving credit to the authors of these developments.

          For any questions about FHI-aims, please visit our slack channel at

            https://fhi-aims.slack.com

          and our main development and support site at

            https://aims-git.rz-berlin.mpg.de .

          The latter site, in particular, has a wiki to collect information, as well
          as an issue tracker to log discussions, suggest improvements, and report issues
          or bugs. https://aims-git.rz-berlin.mpg.de is also the main development site
          of the project and all new and updated code versions can be obtained there.
          Please send an email to aims-coordinators@fhi-berlin.mpg.de and we will add
          you to these sites. They are for you and everyone is welcome there.

------------------------------------------------------------



  Date     :  20210906, Time     :  171643.454
  Time zero on CPU 1             :   0.220419000000000E+00  s.
  Internal wall clock time zero  :           400180603.454  s.

  FHI-aims created a unique identifier for this run for later identification
  aims_uuid : 26222898-DD6D-4968-AC89-0A917FAFC489

  Build configuration of the current instance of FHI-aims
  -------------------------------------------------------
  FHI-aims version      : 210413
  Commit number         : e4873593e
  CMake host system     : Linux-4.12.14-122.57-default
  CMake version         : 3.5.2
  Fortran compiler      : /mpcdf/soft/SLE_12/packages/x86_64/intel_parallel_studio/2020.1/compilers_and_libraries_2020.1.217/linux/mpi/intel64/bin/mpiifort (Intel) version 19.1.0.20200306
  Fortran compiler flags: -O3 -ip -fp-model precise
  C compiler            : /mpcdf/soft/SLE_12/packages/x86_64/intel/19.1.1/bin/icc (Intel) version 19.1.0.20200306
  C compiler flags      : -O3 -ip -fp-model precise -std=gnu99
  C++ compiler          : /mpcdf/soft/SLE_12/packages/x86_64/intel/19.1.1/bin/icpc (Intel) version 19.1.0.20200306
  C++ compiler flags    : -O3 -ip -fp-model precise -std=gnu99
  Using MPI
  Using ScaLAPACK
  Using LibXC
  Using i-PI
  Using RLSY
  Linking against: /mpcdf/soft/SLE_12/packages/x86_64/intel_parallel_studio/2020.1/mkl/lib/intel64/libmkl_intel_lp64.so
                   /mpcdf/soft/SLE_12/packages/x86_64/intel_parallel_studio/2020.1/mkl/lib/intel64/libmkl_sequential.so
                   /mpcdf/soft/SLE_12/packages/x86_64/intel_parallel_studio/2020.1/mkl/lib/intel64/libmkl_core.so
                   /mpcdf/soft/SLE_12/packages/x86_64/intel_parallel_studio/2020.1/mkl/lib/intel64/libmkl_blacs_intelmpi_lp64.so
                   /mpcdf/soft/SLE_12/packages/x86_64/intel_parallel_studio/2020.1/mkl/lib/intel64/libmkl_scalapack_lp64.so

  Using       80 parallel tasks.
  Task        0 on host co3035 reporting.
  Task        1 on host co3035 reporting.
  Task        2 on host co3035 reporting.
  Task        3 on host co3035 reporting.
  Task        4 on host co3035 reporting.
  Task        5 on host co3035 reporting.
  Task        6 on host co3035 reporting.
  Task        7 on host co3035 reporting.
  Task        8 on host co3035 reporting.
  Task        9 on host co3035 reporting.
  Task       10 on host co3035 reporting.
  Task       11 on host co3035 reporting.
  Task       12 on host co3035 reporting.
  Task       13 on host co3035 reporting.
  Task       14 on host co3035 reporting.
  Task       15 on host co3035 reporting.
  Task       16 on host co3035 reporting.
  Task       17 on host co3035 reporting.
  Task       18 on host co3035 reporting.
  Task       19 on host co3035 reporting.
  Task       20 on host co3035 reporting.
  Task       21 on host co3035 reporting.
  Task       22 on host co3035 reporting.
  Task       23 on host co3035 reporting.
  Task       24 on host co3035 reporting.
  Task       25 on host co3035 reporting.
  Task       26 on host co3035 reporting.
  Task       27 on host co3035 reporting.
  Task       28 on host co3035 reporting.
  Task       29 on host co3035 reporting.
  Task       30 on host co3035 reporting.
  Task       31 on host co3035 reporting.
  Task       32 on host co3035 reporting.
  Task       33 on host co3035 reporting.
  Task       34 on host co3035 reporting.
  Task       35 on host co3035 reporting.
  Task       36 on host co3035 reporting.
  Task       37 on host co3035 reporting.
  Task       38 on host co3035 reporting.
  Task       39 on host co3035 reporting.
  Task       40 on host co3038 reporting.
  Task       41 on host co3038 reporting.
  Task       42 on host co3038 reporting.
  Task       43 on host co3038 reporting.
  Task       44 on host co3038 reporting.
  Task       45 on host co3038 reporting.
  Task       46 on host co3038 reporting.
  Task       47 on host co3038 reporting.
  Task       48 on host co3038 reporting.
  Task       49 on host co3038 reporting.
  Task       50 on host co3038 reporting.
  Task       51 on host co3038 reporting.
  Task       52 on host co3038 reporting.
  Task       53 on host co3038 reporting.
  Task       54 on host co3038 reporting.
  Task       55 on host co3038 reporting.
  Task       56 on host co3038 reporting.
  Task       57 on host co3038 reporting.
  Task       58 on host co3038 reporting.
  Task       59 on host co3038 reporting.
  Task       60 on host co3038 reporting.
  Task       61 on host co3038 reporting.
  Task       62 on host co3038 reporting.
  Task       63 on host co3038 reporting.
  Task       64 on host co3038 reporting.
  Task       65 on host co3038 reporting.
  Task       66 on host co3038 reporting.
  Task       67 on host co3038 reporting.
  Task       68 on host co3038 reporting.
  Task       69 on host co3038 reporting.
  Task       70 on host co3038 reporting.
  Task       71 on host co3038 reporting.
  Task       72 on host co3038 reporting.
  Task       73 on host co3038 reporting.
  Task       74 on host co3038 reporting.
  Task       75 on host co3038 reporting.
  Task       76 on host co3038 reporting.
  Task       77 on host co3038 reporting.
  Task       78 on host co3038 reporting.
  Task       79 on host co3038 reporting.

  Performing system and environment tests:
  | Environment variable OMP_NUM_THREADS correctly set to 1.
  | Checking for ScaLAPACK...
  | Testing pdtran()...
  | All pdtran() tests passed.

  Obtaining array dimensions for all initial allocations:
  
  -----------------------------------------------------------------------
  Parsing control.in (first pass over file, find array dimensions only).
  The contents of control.in will be repeated verbatim below
  unless switched off by setting 'verbatim_writeout .false.' .
  in the first line of control.in .
  -----------------------------------------------------------------------
  
  ##### Physical settings  ################
  xc                 pbe
  spin               none
  charge      0.0
  relativistic       atomic_zora scalar
  #elsi_restart read
  # SCF settings
  
  output dos_tetrahedron -10 0 1000 0.1
  output atom_proj_dos_tetrahedron -10 0 1000 0.1
  output species_proj_dos_tetrahedron -10 0 1000 0.1
  
  sc_accuracy_rho    1E-4
  sc_accuracy_eev    1E-3
  sc_accuracy_etot   1E-4
  sc_accuracy_forces 1E-3
  
  #output cube stm -0.5
  mixer   pulay
  n_max_pulay        12 # high for metal
  charge_mix_param   0.07 #low for metal
  
  #vdw_correction_hirshfeld
  occupation_type gaussian       0.01
  # k-grid settings  (to be adjusted)
  k_grid  4 4 1
  #empty_states 8
  
  include_spin_orbit non_self_consistent
  #output cube stm -0.5
  #mixer   pulay
  #n_max_pulay        12 # high for metal
  #charge_mix_param   0.07 #low for metal
  
  #output cube stm -0.5
  many_body_dispersion_nl    beta=0.81
  ################################################################################
  #
  #  FHI-aims code project
  # Volker Blum, Fritz Haber Institute Berlin, 2009
  #
  #  Suggested "tight" defaults for S atom (to be pasted into control.in file)
  #
  #  Revised Jan 04, 2011, following tests (SiC) done by Lydia Nemec:
  #     d and g functions of tier 2 now enabled by default.
  #
  ################################################################################
    species        S
  #     global species definitions
      nucleus             16
      mass                32.065
  #
      l_hartree           6
  #
      cut_pot             4.0          2.0  1.0
      basis_dep_cutoff    1e-4
  #
      radial_base         44 7.0
      radial_multiplier   2
      angular_grids       specified
        division   0.4665  110
        division   0.5810  194
        division   0.7139  302
        division   0.8274  434
  #      division   0.9105  590
  #      division   1.0975  770
  #      division   1.2028  974
  #      outer_grid  974
        outer_grid  434
  ################################################################################
  #
  #  Definition of "minimal" basis
  #
  ################################################################################
  #     valence basis states
      valence      3  s   2.
      valence      3  p   4.
  #     ion occupancy
      ion_occ      3  s   1.
      ion_occ      3  p   3.
  ################################################################################
  #
  #  Suggested additional basis functions. For production calculations,
  #  uncomment them one after another (the most important basis functions are
  #  listed first).
  #
  #  Constructed for dimers: 1.6 A, 1.9 A, 2.5 A, 3.25 A, 4.0 A
  #
  ################################################################################
  #  "First tier" - improvements: -652.81 meV to -45.53 meV
       ionic 3 d auto
       hydro 2 p 1.8
       hydro 4 f 7
       ionic 3 s auto
  #  "Second tier" - improvements: -30.20 meV to -1.74 meV
       hydro 4 d 6.2
       hydro 5 g 10.8
  #     hydro 4 p 4.9
  #     hydro 5 f 10
  #     hydro 1 s 0.8
  #  "Third tier" - improvements: -1.04 meV to -0.20 meV
  #     hydro 3 d 3.9
  #     hydro 3 d 2.7
  #     hydro 5 g 12
  #     hydro 4 p 10.4
  #     hydro 5 f 12.4
  #     hydro 2 s 1.9
  #  "Fourth tier" - improvements: -0.35 meV to -0.06 meV
  #     hydro 4 d 10.4
  #     hydro 4 p 7.2
  #     hydro 4 d 10
  #     hydro 5 g 19.2
  #     hydro 4 s 12
  
  ################################################################################
  #
  # For methods that use the localized form of the "resolution of identity" for
  # the two-electron Coulomb operator (RI_method LVL), particularly Hartree-Fock and
  # hybrid density functional calculations, the highest accuracy can be obtained by
  # uncommenting the line beginning with "for_aux"  below, thus adding an extra g radial
  # function to the construction of the product basis set for the expansion.
  # See Ref. New J. Phys. 17, 093020 (2015) for more information, particularly Figs. 1 and 6.
  #
  ################################################################################
  #
  # for_aux hydro 5 g 6.0
  ################################################################################
  #
  #  FHI-aims code project
  # Volker Blum, Fritz Haber Institute Berlin, 2009
  #
  #  Suggested "tight" defaults for Mo atom (to be pasted into control.in file)
  #
  ################################################################################
    species        Mo
  #     global species definitions
      nucleus             42
      mass                95.94
  #
      l_hartree           6
  #
      cut_pot             4.0  2.0  1.0
      basis_dep_cutoff    1e-4
  #
      radial_base         59 7.0
      radial_multiplier   2
      angular_grids specified
        division   0.3117   50
        division   0.6750  110
        division   1.0351  194
        division   1.2073  302
        division   1.6402  434
  #      division   1.9185  590
  #      division   2.0237  770
  #      division   2.0980  974
  #      division   2.7972 1202
  #      outer_grid  974
        outer_grid  434
  ################################################################################
  #
  #  Definition of "minimal" basis
  #
  ################################################################################
  #     valence basis states
      valence      5  s   1.
      valence      4  p   6.
      valence      4  d   5.
  #     ion occupancy
      ion_occ     5  s   0.
      ion_occ     4  p   6.
      ion_occ     4  d   4.
  ################################################################################
  #
  #  Suggested additional basis functions. For production calculations,
  #  uncomment them one after another (the most important basis functions are
  #  listed first).
  #
  #  Constructed for dimers: 1.675 A, 1.9 A, 2.375 A, 3.00 A, 4.00 A
  #
  ################################################################################
  #  "First tier"  - max. impr. -711.23  meV, min. impr. -21.07 meV
       hydro 4 f 8.4
       hydro 3 d 2.8
       ionic 5 p auto
       hydro 5 g 12
       ionic 5 s auto
  #  "Second tier" - max. impr. -39.38  meV, min. impr. -2.68 meV
  #     hydro 4 f 12.4
  #     hydro 3 d 3.3
  #     hydro 6 h 17.2
  #     hydro 4 f 7.6
  #     hydro 3 p 3.0
  #     hydro 1 s 0.65
  #  "Third tier"  - max. impr. -5.50 meV, min. impr. -0.47 meV
  #     hydro 4 f 29.2
  #     hydro 5 g 11.2
  #     hydro 3 d 6.8
  #     hydro 6 h 14.8
  #     hydro 2 p 2.3
  #     hydro 4 s 3.8
  #  "Fourth tier"  - max. impr. -0.58 meV, min. impr. -0.19 meV
  #     hydro 5 f 6.8
  #     hydro 5 d 14.8
  #     hydro 6 s 7.8
  #     hydro 5 g 20.8
  #     hydro 5 d 10.4
  #     hydro 5 p 9.8
  #  Further functions - -0.17 meV and below
  #     hydro 5 d 3.2
  ################################################################################
  #
  #  FHI-aims code project
  # Volker Blum, Fritz Haber Institute Berlin, 2009
  #
  #  Suggested "tight" defaults for W atom (to be pasted into control.in file)
  #
  ################################################################################
    species          W
  #     global species definitions
      nucleus        74
      mass           183.84
  #
      l_hartree      6
  #
      cut_pot        4.0  2.0  1.0
      basis_dep_cutoff    1e-4
  #
      radial_base    71  7.0
      radial_multiplier  2
      angular_grids specified
        division   0.2901   50
        division   0.6986  110
        division   1.0528  194
        division   1.2659  302
        division   1.5223  434
  #      division   1.8111  590
  #      division   2.0105  770
  #      division   2.0413  974
  #      division   2.8804 1202
  #      outer_grid  974
        outer_grid  434
  ################################################################################
  #
  #  Definition of "minimal" basis
  #
  ################################################################################
  #     valence basis states
      valence      6  s   2.
      valence      5  p   6.
      valence      5  d   4.
      valence      4  f  14.
  #     ion occupancy
      ion_occ      6  s   1.
      ion_occ      5  p   6.
      ion_occ      5  d   3.
      ion_occ      4  f  14.
  ################################################################################
  #
  #  Suggested additional basis functions. For production calculations,
  #  uncomment them one after another (the most important basis functions are
  #  listed first).
  #
  #  Constructed for dimers: 1.775, 1.99, 2.50, 3.25, 4.50 AA
  #
  ################################################################################
  #
  #  "First tier" - improvements: -603.77 meV to -28.99 meV
       hydro 4 f 7.8
       hydro 4 d 5.8
       ionic 6 p auto
       hydro 5 g 12.4
       ionic 6 s auto
  #  "Second tier" - improvements: -28.30 meV to -1.31 meV
  #     hydro 6 h 16.8
  #     ionic 5 d auto
  #     hydro 4 f 8.6
  #     hydro 5 g 16.8
  #     hydro 5 d 8.4
  #     hydro 3 p 3.3
  #     hydro 1 s 0.55
  #  "Third tier" - max. impr. -1.79 meV, min. impr. -0.26 meV
  #     hydro 5 f 10.8
  #     hydro 5 g 34.4
  #     hydro 6 h 20.8
  #     hydro 5 g 12.8
  #     hydro 2 p 1.6
  #     hydro 4 s 4.7
  #     hydro 6 d 18.4
  #  "Fourth tier" -0.46 max. impr. - meV, min. impr. -0.09 meV
  #     hydro 6 h 21.6
  #     hydro 5 f 22.4
  #     hydro 4 f 4
  #     hydro 5 p 9.6
  #     hydro 6 d 17.2
  #     hydro 3 p 5.2
  #     hydro 5 g 4.7
  #     hydro 6 s 7.6
  ################################################################################
  #
  #  FHI-aims code project
  # Volker Blum, Fritz Haber Institute Berlin, 2009
  #
  #  Suggested "tight" defaults for Se atom (to be pasted into control.in file)
  #
  ################################################################################
    species        Se
  #     global species definitions
      nucleus             34
      mass                78.96
  #
      l_hartree           6
  #
      cut_pot             4.0          2.0  1.0
      basis_dep_cutoff    1e-4
  #
      radial_base         55 7.0
      radial_multiplier   2
      angular_grids       specified
        division   0.0830  110
        division   0.1357  194
        division   0.7377  302
        division   0.8610  434
  #      division   0.9640  590
  #      division   1.0773  770
  #      division   2.5539  974
  #      outer_grid  974
        outer_grid  434
  ################################################################################
  #
  #  Definition of "minimal" basis
  #
  ################################################################################
  #     valence basis states
      valence      4  s   2.
      valence      4  p   4.
      valence      3  d  10.
  #     ion occupancy
      ion_occ      4  s   1.
      ion_occ      4  p   3.
      ion_occ      3  d  10.
  ################################################################################
  #
  #  Suggested additional basis functions. For production calculations,
  #  uncomment them one after another (the most important basis functions are
  #  listed first).
  #
  #  Constructed for dimers: 1.85 A, 2.15 A, 2.50 A, 3.00 A, 4.00 A
  #
  ################################################################################
  #  "First tier" - improvements: -336.21 meV to -36.85 meV
       hydro 3 d 4.3
       hydro 2 p 1.6
       hydro 4 f 7.2
       ionic 4 s auto
  #  "Second tier" - improvements: -14.39 meV to -1.49 meV
  #     hydro 5 g 10.4
  #     hydro 4 p 4.5
  #     hydro 4 d 6.2
  #     hydro 4 f 11.2
  #     hydro 1 s 0.65
  #     hydro 6 h 15.2
  #  "Third tier" - improvements: -0.46 meV and below
  #     hydro 5 g 14.4
  #     ionic 4 d auto
  #     hydro 4 f 22.4
  #     hydro 5 f 7.4
  #     hydro 5 p 8
  #     hydro 5 s 9.4
  #  "Fourth tier" - improvements: -0.12 meV and below
  #     hydro 5 d 11.6
  #     hydro 6 h 18
  #     hydro 4 p 4
  #     hydro 5 f 16
  #     hydro 4 s 3.9
  
  
  
  -----------------------------------------------------------------------
  Completed first pass over input file control.in .
  -----------------------------------------------------------------------
  
  
  -----------------------------------------------------------------------
  Parsing geometry.in (first pass over file, find array dimensions only).
  The contents of geometry.in will be repeated verbatim below
  unless switched off by setting 'verbatim_writeout .false.' .
  in the first line of geometry.in .
  -----------------------------------------------------------------------
  
  #
  # This is the geometry file that corresponds to the current relaxation step.
  # If you do not want this file to be written, set the "write_restart_geometry" flag to .false.
  #  aims_uuid : 9A1C3C80-E005-42D5-ACCC-DE00D7D5630D
  #
  lattice_vector     15.90000000      0.00000000      0.00000000
  lattice_vector     -7.95000000     13.76980392      0.00000000
  lattice_vector      0.00000000      0.00000000    100.00000000
  atom       0.00000000      0.91798693      2.60000000 W
  atom       1.59000000      1.83597386      4.17085904 S
  atom       1.59000000      1.83597386      1.02914096 S
  atom      -1.59000000      3.67194771      2.60000000 W
  atom       0.00000000      4.58993464      4.17085904 S
  atom       0.00000000      4.58993464      1.02914096 S
  atom      -3.18000000      6.42590850      2.60000000 W
  atom      -1.59000000      7.34389542      4.17085904 S
  atom      -1.59000000      7.34389542      1.02914096 S
  atom      -4.77000000      9.17986928      2.60000000 W
  atom      -3.18000000     10.09785621      4.17085904 S
  atom      -3.18000000     10.09785621      1.02914096 S
  atom      -6.36000000     11.93383006      2.60000000 W
  atom      -4.77000000     12.85181699      4.17085904 S
  atom      -4.77000000     12.85181699      1.02914096 S
  atom       3.18000000      0.91798693      2.60000000 W
  atom       4.77000000      1.83597386      4.17085904 S
  atom       4.77000000      1.83597386      1.02914096 S
  atom       1.59000000      3.67194771      2.60000000 W
  atom       3.18000000      4.58993464      4.17085904 S
  atom       3.18000000      4.58993464      1.02914096 S
  atom       0.00000000      6.42590850      2.60000000 W
  atom       1.59000000      7.34389542      4.17085904 S
  atom       1.59000000      7.34389542      1.02914096 S
  atom      -1.59000000      9.17986928      2.60000000 W
  atom       0.00000000     10.09785621      4.17085904 S
  atom       0.00000000     10.09785621      1.02914096 S
  atom      -3.18000000     11.93383006      2.60000000 W
  atom      -1.59000000     12.85181699      4.17085904 S
  atom      -1.59000000     12.85181699      1.02914096 S
  atom       6.36000000      0.91798693      2.60000000 W
  atom       7.95000000      1.83597386      4.17085904 S
  atom       7.95000000      1.83597386      1.02914096 S
  atom       4.77000000      3.67194771      2.60000000 W
  atom       6.36000000      4.58993464      4.17085904 S
  atom       6.36000000      4.58993464      1.02914096 S
  atom       3.18000000      6.42590850      2.60000000 W
  atom       4.77000000      7.34389542      4.17085904 S
  atom       4.77000000      7.34389542      1.02914096 S
  atom       1.59000000      9.17986928      2.60000000 W
  atom       3.18000000     10.09785621      4.17085904 S
  atom       3.18000000     10.09785621      1.02914096 S
  atom       0.00000000     11.93383006      2.60000000 W
  atom       1.59000000     12.85181699      4.17085904 S
  atom       1.59000000     12.85181699      1.02914096 S
  atom       9.54000000      0.91798693      2.60000000 W
  atom      11.13000000      1.83597386      4.17085904 S
  atom      11.13000000      1.83597386      1.02914096 S
  atom       7.95000000      3.67194771      2.60000000 W
  atom       9.54000000      4.58993464      4.17085904 S
  atom       9.54000000      4.58993464      1.02914096 S
  atom       6.36000000      6.42590850      2.60000000 W
  atom       7.95000000      7.34389542      4.17085904 S
  atom       7.95000000      7.34389542      1.02914096 S
  atom       4.77000000      9.17986928      2.60000000 W
  atom       6.36000000     10.09785621      4.17085904 S
  atom       6.36000000     10.09785621      1.02914096 S
  atom       3.18000000     11.93383006      2.60000000 W
  atom       4.77000000     12.85181699      4.17085904 S
  atom       4.77000000     12.85181699      1.02914096 S
  atom      12.72000000      0.91798693      2.60000000 W
  atom      14.31000000      1.83597386      4.17085904 S
  atom      14.31000000      1.83597386      1.02914096 S
  atom      11.13000000      3.67194771      2.60000000 W
  atom      12.72000000      4.58993464      4.17085904 S
  atom      12.72000000      4.58993464      1.02914096 S
  atom       9.54000000      6.42590850      2.60000000 W
  atom      11.13000000      7.34389542      4.17085904 S
  atom      11.13000000      7.34389542      1.02914096 S
  atom       7.95000000      9.17986928      2.60000000 W
  atom       9.54000000     10.09785621      4.17085904 S
  atom       9.54000000     10.09785621      1.02914096 S
  atom       6.36000000     11.93383006      2.60000000 W
  atom       7.95000000     12.85181699      4.17085904 S
  atom       7.95000000     12.85181699      1.02914096 S
  #
  # What follows is the current estimated Hessian matrix constructed by the BFGS algorithm.
  # This is NOT the true Hessian matrix of the system.
  # If you do not want this information here, switch it off using the "hessian_to_restart_geometry" keyword.
  #
  
  
  -----------------------------------------------------------------------
  Completed first pass over input file geometry.in .
  -----------------------------------------------------------------------
  

  Basic array size parameters:
  | Number of species                 :        4
  | Number of atoms                   :       75
  | Number of lattice vectors         :        3
  | Max. basis fn. angular momentum   :        4
  | Max. atomic/ionic basis occupied n:        6
  | Max. number of basis fn. types    :        3
  | Max. radial fns per species/type  :       14
  | Max. logarithmic grid size        :     1483
  | Max. radial integration grid size :      143
  | Max. angular integration grid size:      434
  | Max. angular grid division number :        8
  | Radial grid for Hartree potential :     1483
  | Number of spin channels           :        1

------------------------------------------------------------
          Reading file control.in.
------------------------------------------------------------
  XC: Using PBE gradient-corrected functionals.
  Spin treatment: No spin polarisation.
  Charge =   0.000000E+00: Neutral system requested explicitly.
  Scalar relativistic treatment of kinetic energy: on-site free-atom approximation to ZORA.
  Calculating density of states with
  | energy interval :-10.000000  0.000000
  | points & tetrahedron method :  1000
  Calculating atom-projected density of states with
  | energy interval :-10.000000  0.000000
  | points & tetrahedron :  1000
  Calculating angular-momentum projected DOS with 
  | energy interval :-10.000000  0.000000
  | points & tetrahedron :  1000
  Convergence accuracy of self-consistent charge density:  0.1000E-03
  Convergence accuracy of sum of eigenvalues:  0.1000E-02
  Convergence accuracy of total energy:  0.1000E-03
  Convergence accuracy of forces:  0.1000E-02
  Using pulay charge density mixing.
  Pulay mixing - number of memorized iterations:   12
  Charge density mixing - mixing parameter:     0.0700
  Occupation type: Gaussian broadening, width =   0.100000E-01 eV.
  Found k-point grid:         4         4         1
  Calculating non-self-consistent second-variational spin-orbit coupling after scf-cycle
  Using libMBD for calculating MBD and TS energies
 
  Reading configuration options for species S                   .
  | Found nuclear charge :  16.0000
  | Found atomic mass :    32.0650000000000      amu
  | Found l_max for Hartree potential  :   6
  | Found cutoff potl. onset [A], width [A], scale factor :    4.00000    2.00000    1.00000
  | Threshold for basis-dependent cutoff potential is   0.100000E-03
  | Found data for basic radial integration grid :    44 points, outermost radius =    7.000 A
  | Found multiplier for basic radial grid :   2
  | Found angular grid specification: user-specified.
  | Specified grid contains     5 separate shells.
  | Check grid settings after all constraints further below.
  | Found free-atom valence shell :  3 s   2.000
  | Found free-atom valence shell :  3 p   4.000
  | Found free-ion valence shell :  3 s   1.000
  | Found free-ion valence shell :  3 p   3.000
  | Found ionic basis function :  3 d , default cutoff radius.
  | Found hydrogenic basis function :  2 p   1.800
  | Found hydrogenic basis function :  4 f   7.000
  | Found ionic basis function :  3 s , default cutoff radius.
  | Found hydrogenic basis function :  4 d   6.200
  | Found hydrogenic basis function :  5 g  10.800
  Species S                   : Missing cutoff potential type.
  Defaulting to exp(1/x)/(1-x)^2 type cutoff potential.
  Species S : No 'logarithmic' tag. Using default grid for free atom:
  | Default logarithmic grid data [bohr] : 0.1000E-03 0.1000E+03 0.1012E+01
  | Will include ionic basis functions of  2.0-fold positive S                    ion.
  Species S : On-site basis accuracy parameter (for Gram-Schmidt orthonormalisation) not specified.
  Using default value basis_acc =  0.1000000E-03.
  Species S                   : Using default innermost maximum threshold i_radial=  2 for radial functions.
  Species S                   : Default cutoff onset for free atom density etc. : 0.40000000E+01 AA.
  Species S                   : Basic radial grid will be enhanced according to radial_multiplier =   2, to contain    89 grid points.
 
  Reading configuration options for species Mo                  .
  | Found nuclear charge :  42.0000
  | Found atomic mass :    95.9400000000000      amu
  | Found l_max for Hartree potential  :   6
  | Found cutoff potl. onset [A], width [A], scale factor :    4.00000    2.00000    1.00000
  | Threshold for basis-dependent cutoff potential is   0.100000E-03
  | Found data for basic radial integration grid :    59 points, outermost radius =    7.000 A
  | Found multiplier for basic radial grid :   2
  | Found angular grid specification: user-specified.
  | Specified grid contains     6 separate shells.
  | Check grid settings after all constraints further below.
  | Found free-atom valence shell :  5 s   1.000
  | Found free-atom valence shell :  4 p   6.000
  | Found free-atom valence shell :  4 d   5.000
  | Found free-ion valence shell :  5 s   0.000
  | Found free-ion valence shell :  4 p   6.000
  | Found free-ion valence shell :  4 d   4.000
  | Found hydrogenic basis function :  4 f   8.400
  | Found hydrogenic basis function :  3 d   2.800
  | Found ionic basis function :  5 p , default cutoff radius.
  | Found hydrogenic basis function :  5 g  12.000
  | Found ionic basis function :  5 s , default cutoff radius.
  Species Mo                  : Missing cutoff potential type.
  Defaulting to exp(1/x)/(1-x)^2 type cutoff potential.
  Species Mo: No 'logarithmic' tag. Using default grid for free atom:
  | Default logarithmic grid data [bohr] : 0.1000E-03 0.1000E+03 0.1012E+01
  | Will include ionic basis functions of  2.0-fold positive Mo                   ion.
  Species Mo: On-site basis accuracy parameter (for Gram-Schmidt orthonormalisation) not specified.
  Using default value basis_acc =  0.1000000E-03.
  Species Mo                  : Using default innermost maximum threshold i_radial=  2 for radial functions.
  Species Mo                  : Default cutoff onset for free atom density etc. : 0.40000000E+01 AA.
  Species Mo                  : Basic radial grid will be enhanced according to radial_multiplier =   2, to contain   119 grid points.
 
  Reading configuration options for species W                   .
  | Found nuclear charge :  74.0000
  | Found atomic mass :    183.840000000000      amu
  | Found l_max for Hartree potential  :   6
  | Found cutoff potl. onset [A], width [A], scale factor :    4.00000    2.00000    1.00000
  | Threshold for basis-dependent cutoff potential is   0.100000E-03
  | Found data for basic radial integration grid :    71 points, outermost radius =    7.000 A
  | Found multiplier for basic radial grid :   2
  | Found angular grid specification: user-specified.
  | Specified grid contains     6 separate shells.
  | Check grid settings after all constraints further below.
  | Found free-atom valence shell :  6 s   2.000
  | Found free-atom valence shell :  5 p   6.000
  | Found free-atom valence shell :  5 d   4.000
  | Found free-atom valence shell :  4 f  14.000
  | Found free-ion valence shell :  6 s   1.000
  | Found free-ion valence shell :  5 p   6.000
  | Found free-ion valence shell :  5 d   3.000
  | Found free-ion valence shell :  4 f  14.000
  | Found hydrogenic basis function :  4 f   7.800
  | Found hydrogenic basis function :  4 d   5.800
  | Found ionic basis function :  6 p , default cutoff radius.
  | Found hydrogenic basis function :  5 g  12.400
  | Found ionic basis function :  6 s , default cutoff radius.
  Species W                   : Missing cutoff potential type.
  Defaulting to exp(1/x)/(1-x)^2 type cutoff potential.
  Species W : No 'logarithmic' tag. Using default grid for free atom:
  | Default logarithmic grid data [bohr] : 0.1000E-03 0.1000E+03 0.1012E+01
  | Will include ionic basis functions of  2.0-fold positive W                    ion.
  Species W : On-site basis accuracy parameter (for Gram-Schmidt orthonormalisation) not specified.
  Using default value basis_acc =  0.1000000E-03.
  Species W                   : Using default innermost maximum threshold i_radial=  2 for radial functions.
  Species W                   : Default cutoff onset for free atom density etc. : 0.40000000E+01 AA.
  Species W                   : Basic radial grid will be enhanced according to radial_multiplier =   2, to contain   143 grid points.
 
  Reading configuration options for species Se                  .
  | Found nuclear charge :  34.0000
  | Found atomic mass :    78.9600000000000      amu
  | Found l_max for Hartree potential  :   6
  | Found cutoff potl. onset [A], width [A], scale factor :    4.00000    2.00000    1.00000
  | Threshold for basis-dependent cutoff potential is   0.100000E-03
  | Found data for basic radial integration grid :    55 points, outermost radius =    7.000 A
  | Found multiplier for basic radial grid :   2
  | Found angular grid specification: user-specified.
  | Specified grid contains     5 separate shells.
  | Check grid settings after all constraints further below.
  | Found free-atom valence shell :  4 s   2.000
  | Found free-atom valence shell :  4 p   4.000
  | Found free-atom valence shell :  3 d  10.000
  | Found free-ion valence shell :  4 s   1.000
  | Found free-ion valence shell :  4 p   3.000
  | Found free-ion valence shell :  3 d  10.000
  | Found hydrogenic basis function :  3 d   4.300
  | Found hydrogenic basis function :  2 p   1.600
  | Found hydrogenic basis function :  4 f   7.200
  | Found ionic basis function :  4 s , default cutoff radius.
  Species Se                  : Missing cutoff potential type.
  Defaulting to exp(1/x)/(1-x)^2 type cutoff potential.
  Species Se: No 'logarithmic' tag. Using default grid for free atom:
  | Default logarithmic grid data [bohr] : 0.1000E-03 0.1000E+03 0.1012E+01
  | Will include ionic basis functions of  2.0-fold positive Se                   ion.
  Species Se: On-site basis accuracy parameter (for Gram-Schmidt orthonormalisation) not specified.
  Using default value basis_acc =  0.1000000E-03.
  Species Se                  : Using default innermost maximum threshold i_radial=  2 for radial functions.
  Species Se                  : Default cutoff onset for free atom density etc. : 0.40000000E+01 AA.
  Species Se                  : Basic radial grid will be enhanced according to radial_multiplier =   2, to contain   111 grid points.
 
  Finished reading input file 'control.in'.
 
------------------------------------------------------------


------------------------------------------------------------
          Reading geometry description geometry.in.
------------------------------------------------------------
  | The smallest distance between any two atoms is         2.41627774 AA.
  | The first atom of this pair is atom number                      3 .
  | The second atom of this pair is atom number                    19 .
  | Wigner-Seitz cell of the first atom image           0     0     0 .
  | (The Wigner-Seitz cell of the second atom is 0 0 0  by definition.)

  Symmetry information by spglib:
  | Precision set to  0.1E-04
  | Number of Operations  : 300
  | Space group           : 187
  | International         : P-6m2
  | Schoenflies           : D3h^1
  Input structure read successfully.
  The structure contains       75 atoms,  and a total of       2650.000 electrons.

  Input geometry:
  | Unit cell:
  |       15.90000000        0.00000000        0.00000000
  |       -7.95000000       13.76980392        0.00000000
  |        0.00000000        0.00000000      100.00000000
  | Atomic structure:
  |       Atom                x [A]            y [A]            z [A]
  |    1: Species W             0.00000000        0.91798693        2.60000000
  |    2: Species S             1.59000000        1.83597386        4.17085904
  |    3: Species S             1.59000000        1.83597386        1.02914096
  |    4: Species W            -1.59000000        3.67194771        2.60000000
  |    5: Species S             0.00000000        4.58993464        4.17085904
  |    6: Species S             0.00000000        4.58993464        1.02914096
  |    7: Species W            -3.18000000        6.42590850        2.60000000
  |    8: Species S            -1.59000000        7.34389542        4.17085904
  |    9: Species S            -1.59000000        7.34389542        1.02914096
  |   10: Species W            -4.77000000        9.17986928        2.60000000
  |   11: Species S            -3.18000000       10.09785621        4.17085904
  |   12: Species S            -3.18000000       10.09785621        1.02914096
  |   13: Species W            -6.36000000       11.93383006        2.60000000
  |   14: Species S            -4.77000000       12.85181699        4.17085904
  |   15: Species S            -4.77000000       12.85181699        1.02914096
  |   16: Species W             3.18000000        0.91798693        2.60000000
  |   17: Species S             4.77000000        1.83597386        4.17085904
  |   18: Species S             4.77000000        1.83597386        1.02914096
  |   19: Species W             1.59000000        3.67194771        2.60000000
  |   20: Species S             3.18000000        4.58993464        4.17085904
  |   21: Species S             3.18000000        4.58993464        1.02914096
  |   22: Species W             0.00000000        6.42590850        2.60000000
  |   23: Species S             1.59000000        7.34389542        4.17085904
  |   24: Species S             1.59000000        7.34389542        1.02914096
  |   25: Species W            -1.59000000        9.17986928        2.60000000
  |   26: Species S             0.00000000       10.09785621        4.17085904
  |   27: Species S             0.00000000       10.09785621        1.02914096
  |   28: Species W            -3.18000000       11.93383006        2.60000000
  |   29: Species S            -1.59000000       12.85181699        4.17085904
  |   30: Species S            -1.59000000       12.85181699        1.02914096
  |   31: Species W             6.36000000        0.91798693        2.60000000
  |   32: Species S             7.95000000        1.83597386        4.17085904
  |   33: Species S             7.95000000        1.83597386        1.02914096
  |   34: Species W             4.77000000        3.67194771        2.60000000
  |   35: Species S             6.36000000        4.58993464        4.17085904
  |   36: Species S             6.36000000        4.58993464        1.02914096
  |   37: Species W             3.18000000        6.42590850        2.60000000
  |   38: Species S             4.77000000        7.34389542        4.17085904
  |   39: Species S             4.77000000        7.34389542        1.02914096
  |   40: Species W             1.59000000        9.17986928        2.60000000
  |   41: Species S             3.18000000       10.09785621        4.17085904
  |   42: Species S             3.18000000       10.09785621        1.02914096
  |   43: Species W             0.00000000       11.93383006        2.60000000
  |   44: Species S             1.59000000       12.85181699        4.17085904
  |   45: Species S             1.59000000       12.85181699        1.02914096
  |   46: Species W             9.54000000        0.91798693        2.60000000
  |   47: Species S            11.13000000        1.83597386        4.17085904
  |   48: Species S            11.13000000        1.83597386        1.02914096
  |   49: Species W             7.95000000        3.67194771        2.60000000
  |   50: Species S             9.54000000        4.58993464        4.17085904
  |   51: Species S             9.54000000        4.58993464        1.02914096
  |   52: Species W             6.36000000        6.42590850        2.60000000
  |   53: Species S             7.95000000        7.34389542        4.17085904
  |   54: Species S             7.95000000        7.34389542        1.02914096
  |   55: Species W             4.77000000        9.17986928        2.60000000
  |   56: Species S             6.36000000       10.09785621        4.17085904
  |   57: Species S             6.36000000       10.09785621        1.02914096
  |   58: Species W             3.18000000       11.93383006        2.60000000
  |   59: Species S             4.77000000       12.85181699        4.17085904
  |   60: Species S             4.77000000       12.85181699        1.02914096
  |   61: Species W            12.72000000        0.91798693        2.60000000
  |   62: Species S            14.31000000        1.83597386        4.17085904
  |   63: Species S            14.31000000        1.83597386        1.02914096
  |   64: Species W            11.13000000        3.67194771        2.60000000
  |   65: Species S            12.72000000        4.58993464        4.17085904
  |   66: Species S            12.72000000        4.58993464        1.02914096
  |   67: Species W             9.54000000        6.42590850        2.60000000
  |   68: Species S            11.13000000        7.34389542        4.17085904
  |   69: Species S            11.13000000        7.34389542        1.02914096
  |   70: Species W             7.95000000        9.17986928        2.60000000
  |   71: Species S             9.54000000       10.09785621        4.17085904
  |   72: Species S             9.54000000       10.09785621        1.02914096
  |   73: Species W             6.36000000       11.93383006        2.60000000
  |   74: Species S             7.95000000       12.85181699        4.17085904
  |   75: Species S             7.95000000       12.85181699        1.02914096

  Lattice parameters for 3D lattice (in Angstroms) :    15.900000   15.900000  100.000000
  Angle(s) between unit vectors (in degrees)       :    90.000000   90.000000  120.000000


  Quantities derived from the lattice vectors:
  | Reciprocal lattice vector 1:  0.395169  0.228151  0.000000
  | Reciprocal lattice vector 2: -0.000000  0.456302  0.000000
  | Reciprocal lattice vector 3:  0.000000  0.000000  0.062832
  | Unit cell volume                               :   0.218940E+05  A^3

  Fractional coordinates:
                         L1                L2                L3
       atom_frac         0.03333333        0.06666667        0.02600000  W
       atom_frac         0.16666667        0.13333333        0.04170859  S
       atom_frac         0.16666667        0.13333333        0.01029141  S
       atom_frac         0.03333333        0.26666667        0.02600000  W
       atom_frac         0.16666667        0.33333333        0.04170859  S
       atom_frac         0.16666667        0.33333333        0.01029141  S
       atom_frac         0.03333333        0.46666667        0.02600000  W
       atom_frac         0.16666667        0.53333333        0.04170859  S
       atom_frac         0.16666667        0.53333333        0.01029141  S
       atom_frac         0.03333333        0.66666667        0.02600000  W
       atom_frac         0.16666667        0.73333333        0.04170859  S
       atom_frac         0.16666667        0.73333333        0.01029141  S
       atom_frac         0.03333333        0.86666667        0.02600000  W
       atom_frac         0.16666667        0.93333333        0.04170859  S
       atom_frac         0.16666667        0.93333333        0.01029141  S
       atom_frac         0.23333333        0.06666667        0.02600000  W
       atom_frac         0.36666667        0.13333333        0.04170859  S
       atom_frac         0.36666667        0.13333333        0.01029141  S
       atom_frac         0.23333333        0.26666667        0.02600000  W
       atom_frac         0.36666667        0.33333333        0.04170859  S
       atom_frac         0.36666667        0.33333333        0.01029141  S
       atom_frac         0.23333333        0.46666667        0.02600000  W
       atom_frac         0.36666667        0.53333333        0.04170859  S
       atom_frac         0.36666667        0.53333333        0.01029141  S
       atom_frac         0.23333333        0.66666667        0.02600000  W
       atom_frac         0.36666667        0.73333333        0.04170859  S
       atom_frac         0.36666667        0.73333333        0.01029141  S
       atom_frac         0.23333333        0.86666667        0.02600000  W
       atom_frac         0.36666667        0.93333333        0.04170859  S
       atom_frac         0.36666667        0.93333333        0.01029141  S
       atom_frac         0.43333333        0.06666667        0.02600000  W
       atom_frac         0.56666667        0.13333333        0.04170859  S
       atom_frac         0.56666667        0.13333333        0.01029141  S
       atom_frac         0.43333333        0.26666667        0.02600000  W
       atom_frac         0.56666667        0.33333333        0.04170859  S
       atom_frac         0.56666667        0.33333333        0.01029141  S
       atom_frac         0.43333333        0.46666667        0.02600000  W
       atom_frac         0.56666667        0.53333333        0.04170859  S
       atom_frac         0.56666667        0.53333333        0.01029141  S
       atom_frac         0.43333333        0.66666667        0.02600000  W
       atom_frac         0.56666667        0.73333333        0.04170859  S
       atom_frac         0.56666667        0.73333333        0.01029141  S
       atom_frac         0.43333333        0.86666667        0.02600000  W
       atom_frac         0.56666667        0.93333333        0.04170859  S
       atom_frac         0.56666667        0.93333333        0.01029141  S
       atom_frac         0.63333333        0.06666667        0.02600000  W
       atom_frac         0.76666667        0.13333333        0.04170859  S
       atom_frac         0.76666667        0.13333333        0.01029141  S
       atom_frac         0.63333333        0.26666667        0.02600000  W
       atom_frac         0.76666667        0.33333333        0.04170859  S
       atom_frac         0.76666667        0.33333333        0.01029141  S
       atom_frac         0.63333333        0.46666667        0.02600000  W
       atom_frac         0.76666667        0.53333333        0.04170859  S
       atom_frac         0.76666667        0.53333333        0.01029141  S
       atom_frac         0.63333333        0.66666667        0.02600000  W
       atom_frac         0.76666667        0.73333333        0.04170859  S
       atom_frac         0.76666667        0.73333333        0.01029141  S
       atom_frac         0.63333333        0.86666667        0.02600000  W
       atom_frac         0.76666667        0.93333333        0.04170859  S
       atom_frac         0.76666667        0.93333333        0.01029141  S
       atom_frac         0.83333333        0.06666667        0.02600000  W
       atom_frac         0.96666667        0.13333333        0.04170859  S
       atom_frac         0.96666667        0.13333333        0.01029141  S
       atom_frac         0.83333333        0.26666667        0.02600000  W
       atom_frac         0.96666667        0.33333333        0.04170859  S
       atom_frac         0.96666667        0.33333333        0.01029141  S
       atom_frac         0.83333333        0.46666667        0.02600000  W
       atom_frac         0.96666667        0.53333333        0.04170859  S
       atom_frac         0.96666667        0.53333333        0.01029141  S
       atom_frac         0.83333333        0.66666667        0.02600000  W
       atom_frac         0.96666667        0.73333333        0.04170859  S
       atom_frac         0.96666667        0.73333333        0.01029141  S
       atom_frac         0.83333333        0.86666667        0.02600000  W
       atom_frac         0.96666667        0.93333333        0.04170859  S
       atom_frac         0.96666667        0.93333333        0.01029141  S

 
  Finished reading input file 'control.in'.
 

------------------------------------------------------------
          Reading geometry description geometry.in.
------------------------------------------------------------
 
  Consistency checks for stacksize environment parameter are next.
 
  | Maximum stacksize for task 0: unlimited
  | Maximum stacksize for task 1: unlimited
  | Maximum stacksize for task 2: unlimited
  | Maximum stacksize for task 3: unlimited
  | Maximum stacksize for task 4: unlimited
  | Maximum stacksize for task 5: unlimited
  | Maximum stacksize for task 6: unlimited
  | Maximum stacksize for task 7: unlimited
  | Maximum stacksize for task 8: unlimited
  | Maximum stacksize for task 9: unlimited
  | Maximum stacksize for task 10: unlimited
  | Maximum stacksize for task 11: unlimited
  | Maximum stacksize for task 12: unlimited
  | Maximum stacksize for task 13: unlimited
  | Maximum stacksize for task 14: unlimited
  | Maximum stacksize for task 15: unlimited
  | Maximum stacksize for task 16: unlimited
  | Maximum stacksize for task 17: unlimited
  | Maximum stacksize for task 18: unlimited
  | Maximum stacksize for task 19: unlimited
  | Maximum stacksize for task 20: unlimited
  | Maximum stacksize for task 21: unlimited
  | Maximum stacksize for task 22: unlimited
  | Maximum stacksize for task 23: unlimited
  | Maximum stacksize for task 24: unlimited
  | Maximum stacksize for task 25: unlimited
  | Maximum stacksize for task 26: unlimited
  | Maximum stacksize for task 27: unlimited
  | Maximum stacksize for task 28: unlimited
  | Maximum stacksize for task 29: unlimited
  | Maximum stacksize for task 30: unlimited
  | Maximum stacksize for task 31: unlimited
  | Maximum stacksize for task 32: unlimited
  | Maximum stacksize for task 33: unlimited
  | Maximum stacksize for task 34: unlimited
  | Maximum stacksize for task 35: unlimited
  | Maximum stacksize for task 36: unlimited
  | Maximum stacksize for task 37: unlimited
  | Maximum stacksize for task 38: unlimited
  | Maximum stacksize for task 39: unlimited
  | Maximum stacksize for task 40: unlimited
  | Maximum stacksize for task 41: unlimited
  | Maximum stacksize for task 42: unlimited
  | Maximum stacksize for task 43: unlimited
  | Maximum stacksize for task 44: unlimited
  | Maximum stacksize for task 45: unlimited
  | Maximum stacksize for task 46: unlimited
  | Maximum stacksize for task 47: unlimited
  | Maximum stacksize for task 48: unlimited
  | Maximum stacksize for task 49: unlimited
  | Maximum stacksize for task 50: unlimited
  | Maximum stacksize for task 51: unlimited
  | Maximum stacksize for task 52: unlimited
  | Maximum stacksize for task 53: unlimited
  | Maximum stacksize for task 54: unlimited
  | Maximum stacksize for task 55: unlimited
  | Maximum stacksize for task 56: unlimited
  | Maximum stacksize for task 57: unlimited
  | Maximum stacksize for task 58: unlimited
  | Maximum stacksize for task 59: unlimited
  | Maximum stacksize for task 60: unlimited
  | Maximum stacksize for task 61: unlimited
  | Maximum stacksize for task 62: unlimited
  | Maximum stacksize for task 63: unlimited
  | Maximum stacksize for task 64: unlimited
  | Maximum stacksize for task 65: unlimited
  | Maximum stacksize for task 66: unlimited
  | Maximum stacksize for task 67: unlimited
  | Maximum stacksize for task 68: unlimited
  | Maximum stacksize for task 69: unlimited
  | Maximum stacksize for task 70: unlimited
  | Maximum stacksize for task 71: unlimited
  | Maximum stacksize for task 72: unlimited
  | Maximum stacksize for task 73: unlimited
  | Maximum stacksize for task 74: unlimited
  | Maximum stacksize for task 75: unlimited
  | Maximum stacksize for task 76: unlimited
  | Maximum stacksize for task 77: unlimited
  | Maximum stacksize for task 78: unlimited
  | Maximum stacksize for task 79: unlimited
  | Current stacksize for task 0: unlimited
  | Current stacksize for task 1: unlimited
  | Current stacksize for task 2: unlimited
  | Current stacksize for task 3: unlimited
  | Current stacksize for task 4: unlimited
  | Current stacksize for task 5: unlimited
  | Current stacksize for task 6: unlimited
  | Current stacksize for task 7: unlimited
  | Current stacksize for task 8: unlimited
  | Current stacksize for task 9: unlimited
  | Current stacksize for task 10: unlimited
  | Current stacksize for task 11: unlimited
  | Current stacksize for task 12: unlimited
  | Current stacksize for task 13: unlimited
  | Current stacksize for task 14: unlimited
  | Current stacksize for task 15: unlimited
  | Current stacksize for task 16: unlimited
  | Current stacksize for task 17: unlimited
  | Current stacksize for task 18: unlimited
  | Current stacksize for task 19: unlimited
  | Current stacksize for task 20: unlimited
  | Current stacksize for task 21: unlimited
  | Current stacksize for task 22: unlimited
  | Current stacksize for task 23: unlimited
  | Current stacksize for task 24: unlimited
  | Current stacksize for task 25: unlimited
  | Current stacksize for task 26: unlimited
  | Current stacksize for task 27: unlimited
  | Current stacksize for task 28: unlimited
  | Current stacksize for task 29: unlimited
  | Current stacksize for task 30: unlimited
  | Current stacksize for task 31: unlimited
  | Current stacksize for task 32: unlimited
  | Current stacksize for task 33: unlimited
  | Current stacksize for task 34: unlimited
  | Current stacksize for task 35: unlimited
  | Current stacksize for task 36: unlimited
  | Current stacksize for task 37: unlimited
  | Current stacksize for task 38: unlimited
  | Current stacksize for task 39: unlimited
  | Current stacksize for task 40: unlimited
  | Current stacksize for task 41: unlimited
  | Current stacksize for task 42: unlimited
  | Current stacksize for task 43: unlimited
  | Current stacksize for task 44: unlimited
  | Current stacksize for task 45: unlimited
  | Current stacksize for task 46: unlimited
  | Current stacksize for task 47: unlimited
  | Current stacksize for task 48: unlimited
  | Current stacksize for task 49: unlimited
  | Current stacksize for task 50: unlimited
  | Current stacksize for task 51: unlimited
  | Current stacksize for task 52: unlimited
  | Current stacksize for task 53: unlimited
  | Current stacksize for task 54: unlimited
  | Current stacksize for task 55: unlimited
  | Current stacksize for task 56: unlimited
  | Current stacksize for task 57: unlimited
  | Current stacksize for task 58: unlimited
  | Current stacksize for task 59: unlimited
  | Current stacksize for task 60: unlimited
  | Current stacksize for task 61: unlimited
  | Current stacksize for task 62: unlimited
  | Current stacksize for task 63: unlimited
  | Current stacksize for task 64: unlimited
  | Current stacksize for task 65: unlimited
  | Current stacksize for task 66: unlimited
  | Current stacksize for task 67: unlimited
  | Current stacksize for task 68: unlimited
  | Current stacksize for task 69: unlimited
  | Current stacksize for task 70: unlimited
  | Current stacksize for task 71: unlimited
  | Current stacksize for task 72: unlimited
  | Current stacksize for task 73: unlimited
  | Current stacksize for task 74: unlimited
  | Current stacksize for task 75: unlimited
  | Current stacksize for task 76: unlimited
  | Current stacksize for task 77: unlimited
  | Current stacksize for task 78: unlimited
  | Current stacksize for task 79: unlimited
 
  Consistency checks for the contents of control.in are next.
 
  MPI_IN_PLACE appears to work with this MPI implementation.
  | Keeping use_mpi_in_place .true. (see manual).
  Target number of points in a grid batch is not set. Defaulting to  100
  Method for grid partitioning is not set. Defaulting to parallel hash+maxmin partitioning.
  Batch size limit is not set. Defaulting to    200
  By default, will store active basis functions for each batch.
  If in need of memory, prune_basis_once .false. can be used to disable this option.
  communication_type for Hartree potential was not specified.
  Defaulting to calc_hartree .
  Pulay mixer: Number of initial linear mixing iterations not set.
  Defaulting to    0 iterations.
  Work space size for distributed Hartree potential not set.
  Defaulting to   0.200000E+03 MB.
  Algorithm-dependent basis array size parameters:
  | n_max_pulay                         :       12
  Maximum number of self-consistency iterations not provided.
  Presetting  1000 iterations.
  Presetting      1001 iterations before the initial mixing cycle
  is restarted anyway using the sc_init_iter criterion / keyword.
  Presetting a factor      1.000 between actual scf density residual
  and density convergence criterion sc_accuracy_rho below which sc_init_iter
  takes no effect.
  Geometry relaxation not requested: no relaxation will be performed.
  Handling of forces: Unphysical translation and rotation will be removed from forces.
  No accuracy limit for integral partition fn. given. Defaulting to  0.1000E-14.
  No threshold value for u(r) in integrations given. Defaulting to  0.1000E-05.
  No accuracy for occupation numbers given. Defaulting to  0.1000E-12.
  No threshold value for occupation numbers given. Defaulting to  0.0000E+00.
  No accuracy for fermi level given. Defaulting to  0.1000E-19.
  Maximum # of iterations to find E_F not set. Defaulting to  200.
  Preferred method for the eigenvalue solver ('KS_method') not specified in 'control.in'.
  Calling BLACS routine to test compilation state
  Since ScaLAPACK support is enabled, defaulting to ELPA (via ELSI).
  Will not use alltoall communication since running on < 1024 CPUs.
  Threshold for basis singularities not set.
  Default threshold for basis singularities:  0.1000E-04
  partition_type (choice of integration weights) for integrals was not specified.
  | Using a version of the partition function of Stratmann and coworkers ('stratmann_sparse').
  | At each grid point, the set of atoms used to build the partition table is smoothly restricted to
  | only those atoms whose free-atom density would be non-zero at that grid point.
  Partitioning for Hartree potential was not defined. Using partition_type for integrals.
  | Adjusted default value of keyword multip_moments_threshold to:       0.10000000E-11
  | This value may affect high angular momentum components of the Hartree potential in periodic systems.
  Angular momentum expansion for Kerker preconditioner not set explicitly.
  | Using default value of   0
  No explicit requirement for turning off preconditioner.
  | By default, it will be turned off when the charge convergence reaches
  | sc_accuracy_rho  =   0.100000E-03
  | sc_accuracy_eev  =   0.100000E-02
  | sc_accuracy_etot =   0.100000E-03
  No special mixing parameter while Kerker preconditioner is on.
  Using default: charge_mix_param =     0.0700.
  No q(lm)/r^(l+1) cutoff set for long-range Hartree potential.
  | Using default value of  0.100000E-09 .
  | Verify using the multipole_threshold keyword.
  Defaulting to new monopole extrapolation.
  Density update method: automatic selection selected.
  Using density matrix based charge density update.
  Using density matrix based charge density update.
  Using packed matrix style: index .
  Defaulting to use time-reversal symmetry for k-point grid.
  Charge integration errors on the 3D integration grid will be compensated
  by explicit normalization and distribution of residual charges.
  Use the "compensate_multipole_errors" flag to change this behaviour.
 
  Consistency checks for the contents of geometry.in are next.
 

  Range separation radius for Ewald summation (hartree_convergence_parameter):      5.00000000 bohr.
  Number of empty states per atom not set in control.in - providing a guess from actual geometry.
  | Total number of empty states used during s.c.f. cycle:      375
  If you use a very high smearing, use empty_states (per atom!) in control.in to increase this value.

  Structure-dependent array size parameters: 
  | Maximum number of distinct radial functions  :       57
  | Maximum number of basis functions            :     3575
  | Number of Kohn-Sham states (occupied + empty):     1700
------------------------------------------------------------

------------------------------------------------------------
          Preparing all fixed parts of the calculation.
------------------------------------------------------------
  Determining machine precision:
    2.225073858507201E-308
  Setting up grids for atomic and cluster calculations.

  Creating wave function, potential, and density for free atoms.

  Species: S

  List of occupied orbitals and eigenvalues:
    n    l              occ      energy [Ha]    energy [eV]
    1    0           2.0000       -88.680731     -2413.1255
    2    0           2.0000        -7.781719      -211.7513
    3    0           2.0000        -0.633662       -17.2428
    2    1           6.0000        -5.751976      -156.5192
    3    1           4.0000        -0.257086        -6.9957


  Species: Mo

  List of occupied orbitals and eigenvalues:
    n    l              occ      energy [Ha]    energy [eV]
    1    0           2.0000      -745.344654    -20281.8600
    2    0           2.0000      -103.288246     -2810.6162
    3    0           2.0000       -17.516687      -476.6533
    4    0           2.0000        -2.358559       -64.1796
    5    0           1.0000        -0.145159        -3.9500
    2    1           6.0000       -92.308627     -2511.8455
    3    1           6.0000       -13.936005      -379.2180
    4    1           6.0000        -1.408138       -38.3174
    3    2          10.0000        -8.119011      -220.9295
    4    2           5.0000        -0.132984        -3.6187


  Species: W

  List of occupied orbitals and eigenvalues:
    n    l              occ      energy [Ha]    energy [eV]
    1    0           2.0000     -2764.899999    -75236.7570
    2    0           2.0000      -447.822848    -12185.8797
    3    0           2.0000      -101.923634     -2773.4832
    4    0           2.0000       -20.945301      -569.9506
    5    0           2.0000        -2.899582       -78.9016
    6    0           2.0000        -0.207066        -5.6345
    2    1           6.0000      -391.021390    -10640.2334
    3    1           6.0000       -85.417793     -2324.3364
    4    1           6.0000       -15.562838      -423.4864
    5    1           6.0000        -1.582233       -43.0547
    3    2          10.0000       -66.517936     -1810.0451
    4    2          10.0000        -8.758436      -238.3292
    5    2           4.0000        -0.161873        -4.4048
    4    3          14.0000        -1.221948       -33.2509


  Species: Se

  List of occupied orbitals and eigenvalues:
    n    l              occ      energy [Ha]    energy [eV]
    1    0           2.0000      -466.337810    -12689.6975
    2    0           2.0000       -59.202598     -1610.9847
    3    0           2.0000        -7.847116      -213.5309
    4    0           2.0000        -0.634372       -17.2621
    2    1           6.0000       -52.061107     -1416.6548
    3    1           6.0000        -5.620941      -152.9536
    4    1           4.0000        -0.238469        -6.4891
    3    2          10.0000        -1.951949       -53.1152


  Adding cutoff potential to free-atom effective potential.
  Creating fixed part of basis set: Ionic, confined, hydrogenic.
 
  S                    ion:

  List of free ionic orbitals and eigenvalues:
    n    l      energy [Ha]    energy [eV]
    1    0       -89.703778     -2440.9640
    2    0        -8.775428      -238.7916
    3    0        -1.470343       -40.0101
    2    1        -6.747660      -183.6132
    3    1        -1.048627       -28.5346


  List of ionic basis orbitals and eigenvalues:
    n    l      energy [Ha]    energy [eV]    outer radius [A]
    3    2        -0.495605       -13.4861       5.386362
    3    0        -1.470336       -40.0099       3.967934

 
  S                    hydrogenic:
 
  List of hydrogenic basis orbitals: 
    n    l      effective z      eigenvalue [eV]  inner max. [A]     outer max. [A]     outer radius [A]   
    2    1         1.800000       -11.0118           1.168531           1.168531           5.452614
    4    3         7.000000       -41.6672           1.212182           1.212182           5.066981
    4    2         6.200000       -32.6848           0.582121           1.814567           5.386362
    5    4        10.800000       -63.4785           1.227092           1.227092           4.766538
 
 
  Mo                   ion:

  List of free ionic orbitals and eigenvalues:
    n    l      energy [Ha]    energy [eV]
    1    0      -746.048685    -20301.0176
    2    0      -103.980912     -2829.4646
    3    0       -18.206601      -495.4268
    4    0        -3.040545       -82.7374
    2    1       -93.001013     -2530.6863
    3    1       -14.625827      -397.9890
    4    1        -2.084855       -56.7318
    3    2        -8.808854      -239.7011
    4    2        -0.765435       -20.8285


  List of ionic basis orbitals and eigenvalues:
    n    l      energy [Ha]    energy [eV]    outer radius [A]
    5    1        -0.465587       -12.6693       5.456393
    5    0        -0.650331       -17.6964       5.390095

 
  Mo                   hydrogenic:
 
  List of hydrogenic basis orbitals: 
    n    l      effective z      eigenvalue [eV]  inner max. [A]     outer max. [A]     outer radius [A]   
    4    3         8.400000       -60.0010           1.009788           1.009788           4.487018
    3    2         2.800000       -11.8048           1.687401           1.687401           5.456393
    5    4        12.000000       -78.3687           1.100005           1.100005           4.432498
 
 
  W                    ion:

  List of free ionic orbitals and eigenvalues:
    n    l      energy [Ha]    energy [eV]
    1    0     -2765.664016    -75257.5469
    2    0      -448.543169    -12205.4806
    3    0      -102.635476     -2792.8534
    4    0       -21.655379      -589.2728
    5    0        -3.604872       -98.0936
    6    0        -0.752243       -20.4696
    2    1      -391.740682    -10659.8063
    3    1       -86.129333     -2343.6984
    4    1       -16.272893      -442.8080
    5    1        -2.280103       -62.0448
    3    2       -67.229405     -1829.4052
    4    2        -9.468448      -257.6496
    5    2        -0.806537       -21.9470
    4    3        -1.931058       -52.5468


  List of ionic basis orbitals and eigenvalues:
    n    l      energy [Ha]    energy [eV]    outer radius [A]
    6    1        -0.508246       -13.8301       5.434360
    6    0        -0.752227       -20.4691       5.368330

 
  W                    hydrogenic:
 
  List of hydrogenic basis orbitals: 
    n    l      effective z      eigenvalue [eV]  inner max. [A]     outer max. [A]     outer radius [A]   
    4    3         7.800000       -51.7355           1.082252           1.082252           4.692859
    4    2         5.800000       -28.5979           0.616741           1.946131           5.434360
    5    4        12.400000       -83.6803           1.069102           1.069102           4.307971
 
 
  Se                   ion:

  List of free ionic orbitals and eigenvalues:
    n    l      energy [Ha]    energy [eV]
    1    0      -467.261007    -12714.8189
    2    0       -60.104893     -1635.5374
    3    0        -8.743714      -237.9286
    4    0        -1.414053       -38.4783
    2    1       -52.964156     -1441.2280
    3    1        -6.516916      -177.3343
    4    1        -0.961869       -26.1738
    3    2        -2.844511       -77.4031


  List of ionic basis orbitals and eigenvalues:
    n    l      energy [Ha]    energy [eV]    outer radius [A]
    4    0        -1.414046       -38.4782       4.083166

 
  Se                   hydrogenic:
 
  List of hydrogenic basis orbitals: 
    n    l      effective z      eigenvalue [eV]  inner max. [A]     outer max. [A]     outer radius [A]   
    3    2         4.300000       -27.9518           1.103845           1.103845           5.278265
    2    1         1.600000        -8.6828           1.326010           1.326010           5.475439
    4    3         7.200000       -44.0822           1.173422           1.173422           4.965294
 
  Creating atomic-like basis functions for current effective potential.

  Species S                   :

  List of atomic basis orbitals and eigenvalues:
    n    l      energy [Ha]    energy [eV]    outer radius [A]
    1    0       -88.680731     -2413.1255       0.682391
    2    0        -7.781719      -211.7513       2.289014
    3    0        -0.633662       -17.2428       5.256262
    2    1        -5.751976      -156.5192       2.555240
    3    1        -0.257086        -6.9957       5.386362


  Species Mo                  :

  List of atomic basis orbitals and eigenvalues:
    n    l      energy [Ha]    energy [eV]    outer radius [A]
    1    0      -745.344654    -20281.8600       0.247552
    2    0      -103.288246     -2810.6162       0.682864
    3    0       -17.516687      -476.6533       1.626637
    4    0        -2.358559       -64.1796       4.220963
    5    0        -0.145159        -3.9500       5.456393
    2    1       -92.308627     -2511.8455       0.699766
    3    1       -13.936005      -379.2180       1.793761
    4    1        -1.408138       -38.3174       4.828511
    3    2        -8.119011      -220.9295       2.181285
    4    2        -0.132984        -3.6187       5.390095


  Species W                   :

  List of atomic basis orbitals and eigenvalues:
    n    l      energy [Ha]    energy [eV]    outer radius [A]
    1    0     -2764.899999    -75236.7570       0.130566
    2    0      -447.822848    -12185.8797       0.342973
    3    0      -101.923634     -2773.4832       0.722975
    4    0       -20.945301      -569.9506       1.542753
    5    0        -2.899582       -78.9016       3.859132
    6    0        -0.207066        -5.6345       5.434360
    2    1      -391.021390    -10640.2334       0.355785
    3    1       -85.417793     -2324.3364       0.768545
    4    1       -15.562838      -423.4864       1.722184
    5    1        -1.582233       -43.0547       4.750581
    3    2       -66.517936     -1810.0451       0.827037
    4    2        -8.758436      -238.3292       2.172477
    5    2        -0.161873        -4.4048       5.368330
    4    3        -1.221948       -33.2509       4.579510


  Species Se                  :

  List of atomic basis orbitals and eigenvalues:
    n    l      energy [Ha]    energy [eV]    outer radius [A]
    1    0      -466.337810    -12689.6975       0.309561
    2    0       -59.202598     -1610.9847       0.885812
    3    0        -7.847116      -213.5309       2.355489
    4    0        -0.634372       -17.2621       5.214131
    2    1       -52.061107     -1416.6548       0.907737
    3    1        -5.620941      -152.9536       2.694529
    4    1        -0.238469        -6.4891       5.408909
    3    2        -1.951949       -53.1152       4.083166

  Assembling full basis from fixed parts.
  | Species S :   atomic orbital   1 s accepted.
  | Species S :   atomic orbital   2 s accepted.
  | Species S :    ionic orbital   3 s accepted.
  | Species S :   atomic orbital   3 s accepted.
  | Species S :   atomic orbital   2 p accepted.
  | Species S :   atomic orbital   3 p accepted.
  | Species S :    hydro orbital   2 p accepted.
  | Species S :    ionic orbital   3 d accepted.
  | Species S :    hydro orbital   4 d accepted.
  | Species S :    hydro orbital   4 f accepted.
  | Species S :    hydro orbital   5 g accepted.
  | Species Mo :   atomic orbital   1 s accepted.
  | Species Mo :   atomic orbital   2 s accepted.
  | Species Mo :   atomic orbital   3 s accepted.
  | Species Mo :   atomic orbital   4 s accepted.
  | Species Mo :    ionic orbital   5 s accepted.
  | Species Mo :   atomic orbital   5 s accepted.
  | Species Mo :   atomic orbital   2 p accepted.
  | Species Mo :   atomic orbital   3 p accepted.
  | Species Mo :   atomic orbital   4 p accepted.
  | Species Mo :    ionic orbital   5 p accepted.
  | Species Mo :   atomic orbital   3 d accepted.
  | Species Mo :   atomic orbital   4 d accepted.
  | Species Mo :    hydro orbital   3 d accepted.
  | Species Mo :    hydro orbital   4 f accepted.
  | Species Mo :    hydro orbital   5 g accepted.
  | Species W :   atomic orbital   1 s accepted.
  | Species W :   atomic orbital   2 s accepted.
  | Species W :   atomic orbital   3 s accepted.
  | Species W :   atomic orbital   4 s accepted.
  | Species W :   atomic orbital   5 s accepted.
  | Species W :    ionic orbital   6 s accepted.
  | Species W :   atomic orbital   6 s accepted.
  | Species W :   atomic orbital   2 p accepted.
  | Species W :   atomic orbital   3 p accepted.
  | Species W :   atomic orbital   4 p accepted.
  | Species W :   atomic orbital   5 p accepted.
  | Species W :    ionic orbital   6 p accepted.
  | Species W :   atomic orbital   3 d accepted.
  | Species W :   atomic orbital   4 d accepted.
  | Species W :   atomic orbital   5 d accepted.
  | Species W :    hydro orbital   4 d accepted.
  | Species W :   atomic orbital   4 f accepted.
  | Species W :    hydro orbital   4 f accepted.
  | Species W :    hydro orbital   5 g accepted.
  | Species Se :   atomic orbital   1 s accepted.
  | Species Se :   atomic orbital   2 s accepted.
  | Species Se :   atomic orbital   3 s accepted.
  | Species Se :    ionic orbital   4 s accepted.
  | Species Se :   atomic orbital   4 s accepted.
  | Species Se :   atomic orbital   2 p accepted.
  | Species Se :   atomic orbital   3 p accepted.
  | Species Se :   atomic orbital   4 p accepted.
  | Species Se :    hydro orbital   2 p accepted.
  | Species Se :   atomic orbital   3 d accepted.
  | Species Se :    hydro orbital   3 d accepted.
  | Species Se :    hydro orbital   4 f accepted.
 
  Basis size parameters after reduction:
  | Total number of radial functions:       57
  | Total number of basis functions :     3575
 
  Per-task memory consumption for arrays in subroutine allocate_ext:
  |          21.732744MB.
  Testing on-site integration grid accuracy.
  |  Species  Function  <phi|h_atom|phi> (log., in eV)  <phi|h_atom|phi> (rad., in eV)
           1        1              -2413.1254568977              -2413.1254096663
           1        2               -211.7513411281               -211.7513404762
           1        3                -16.9725280787                -16.9725279206
           1        4                  7.6024436204                  7.6024549059
           1        5               -156.5192206929               -156.5192205451
           1        6                 -6.9959757887                 -6.9959777655
           1        7                  6.8896462808                  6.8895564741
           1        8                  6.0214250550                  6.0214220200
           1        9                 19.6206468977                 19.6206494558
           1       10                 24.7008710786                 24.7008710738
           1       11                 47.5292252001                 47.5292260486
           2       12             -20281.8599610543             -20281.8584300616
           2       13              -2810.6161812280              -2810.6161551921
           2       14               -476.6533163555               -476.6533136395
           2       15                -64.1796433667                -64.1796426456
           2       16                 -3.3691762756                 -3.3691802887
           2       17                  4.4704608512                  4.4699102345
           2       18              -2511.8455406047              -2511.8455385741
           2       19               -379.2179896350               -379.2179882338
           2       20                -38.3173891619                -38.3173886619
           2       21                  0.2493245095                  0.2492931069
           2       22               -220.9295301098               -220.9295297081
           2       23                 -3.6195697699                 -3.6195754704
           2       24                  7.1428000922                  7.1426882355
           2       25                 23.3975871087                 23.3975871819
           2       26                 50.2449608881                 50.2449608586
           3       27             -75236.7569897398             -75236.7398021816
           3       28             -12185.8796968880             -12185.8793671389
           3       29              -2773.4831911435              -2773.4831624928
           3       30               -569.9506420417               -569.9506363235
           3       31                -78.9016401752                -78.9016385968
           3       32                 -5.1691854984                 -5.1691848358
           3       33                  4.5636857939                  4.5638143912
           3       34             -10640.2333851158             -10640.2333803363
           3       35              -2324.3364165327              -2324.3364072919
           3       36               -423.4863614587               -423.4863574859
           3       37                -43.0547390741                -43.0547381500
           3       38                 -0.2794590886                 -0.2794514857
           3       39              -1810.0451240061              -1810.0451202456
           3       40               -238.3291788477               -238.3291766726
           3       41                 -4.4054312547                 -4.4054293963
           3       42                  8.2928303329                  8.2928369211
           3       43                -33.2508975442                -33.2508971531
           3       44                 21.3563540731                 21.3563541107
           3       45                 49.8060668072                 49.8060668107
           4       46             -12689.6974611609             -12689.6967666984
           4       47              -1610.9846578580              -1610.9846472470
           4       48               -213.5308789869               -213.5308777267
           4       49                -17.0464428502                -17.0464426496
           4       50                  6.7356859379                  6.7356842047
           4       51              -1416.6548010133              -1416.6548002108
           4       52               -152.9535734377               -152.9535727493
           4       53                 -6.4896265677                 -6.4896303794
[...]
  | writing   projected DOS (raw data) for species S to file atom_proj_dos_tetrahedron_S0021_raw.dat.
  | writing   projected DOS (shifted by the chemical potential) for species W to file atom_proj_dos_tetrahedron_W0022.dat.
  | writing   projected DOS (raw data) for species W to file atom_proj_dos_tetrahedron_W0022_raw.dat.
  | writing   projected DOS (shifted by the chemical potential) for species S to file atom_proj_dos_tetrahedron_S0023.dat.
  | writing   projected DOS (raw data) for species S to file atom_proj_dos_tetrahedron_S0023_raw.dat.
  | writing   projected DOS (shifted by the chemical potential) for species S to file atom_proj_dos_tetrahedron_S0024.dat.
  | writing   projected DOS (raw data) for species S to file atom_proj_dos_tetrahedron_S0024_raw.dat.
  | writing   projected DOS (shifted by the chemical potential) for species W to file atom_proj_dos_tetrahedron_W0025.dat.
  | writing   projected DOS (raw data) for species W to file atom_proj_dos_tetrahedron_W0025_raw.dat.
  | writing   projected DOS (shifted by the chemical potential) for species S to file atom_proj_dos_tetrahedron_S0026.dat.
  | writing   projected DOS (raw data) for species S to file atom_proj_dos_tetrahedron_S0026_raw.dat.
  | writing   projected DOS (shifted by the chemical potential) for species S to file atom_proj_dos_tetrahedron_S0027.dat.
  | writing   projected DOS (raw data) for species S to file atom_proj_dos_tetrahedron_S0027_raw.dat.
  | writing   projected DOS (shifted by the chemical potential) for species W to file atom_proj_dos_tetrahedron_W0028.dat.
  | writing   projected DOS (raw data) for species W to file atom_proj_dos_tetrahedron_W0028_raw.dat.
  | writing   projected DOS (shifted by the chemical potential) for species S to file atom_proj_dos_tetrahedron_S0029.dat.
  | writing   projected DOS (raw data) for species S to file atom_proj_dos_tetrahedron_S0029_raw.dat.
  | writing   projected DOS (shifted by the chemical potential) for species S to file atom_proj_dos_tetrahedron_S0030.dat.
  | writing   projected DOS (raw data) for species S to file atom_proj_dos_tetrahedron_S0030_raw.dat.
  | writing   projected DOS (shifted by the chemical potential) for species W to file atom_proj_dos_tetrahedron_W0031.dat.
  | writing   projected DOS (raw data) for species W to file atom_proj_dos_tetrahedron_W0031_raw.dat.
  | writing   projected DOS (shifted by the chemical potential) for species S to file atom_proj_dos_tetrahedron_S0032.dat.
  | writing   projected DOS (raw data) for species S to file atom_proj_dos_tetrahedron_S0032_raw.dat.
  | writing   projected DOS (shifted by the chemical potential) for species S to file atom_proj_dos_tetrahedron_S0033.dat.
  | writing   projected DOS (raw data) for species S to file atom_proj_dos_tetrahedron_S0033_raw.dat.
  | writing   projected DOS (shifted by the chemical potential) for species W to file atom_proj_dos_tetrahedron_W0034.dat.
  | writing   projected DOS (raw data) for species W to file atom_proj_dos_tetrahedron_W0034_raw.dat.
  | writing   projected DOS (shifted by the chemical potential) for species S to file atom_proj_dos_tetrahedron_S0035.dat.
  | writing   projected DOS (raw data) for species S to file atom_proj_dos_tetrahedron_S0035_raw.dat.
  | writing   projected DOS (shifted by the chemical potential) for species S to file atom_proj_dos_tetrahedron_S0036.dat.
  | writing   projected DOS (raw data) for species S to file atom_proj_dos_tetrahedron_S0036_raw.dat.
  | writing   projected DOS (shifted by the chemical potential) for species W to file atom_proj_dos_tetrahedron_W0037.dat.
  | writing   projected DOS (raw data) for species W to file atom_proj_dos_tetrahedron_W0037_raw.dat.
  | writing   projected DOS (shifted by the chemical potential) for species S to file atom_proj_dos_tetrahedron_S0038.dat.
  | writing   projected DOS (raw data) for species S to file atom_proj_dos_tetrahedron_S0038_raw.dat.
  | writing   projected DOS (shifted by the chemical potential) for species S to file atom_proj_dos_tetrahedron_S0039.dat.
  | writing   projected DOS (raw data) for species S to file atom_proj_dos_tetrahedron_S0039_raw.dat.
  | writing   projected DOS (shifted by the chemical potential) for species W to file atom_proj_dos_tetrahedron_W0040.dat.
  | writing   projected DOS (raw data) for species W to file atom_proj_dos_tetrahedron_W0040_raw.dat.
  | writing   projected DOS (shifted by the chemical potential) for species S to file atom_proj_dos_tetrahedron_S0041.dat.
  | writing   projected DOS (raw data) for species S to file atom_proj_dos_tetrahedron_S0041_raw.dat.
  | writing   projected DOS (shifted by the chemical potential) for species S to file atom_proj_dos_tetrahedron_S0042.dat.
  | writing   projected DOS (raw data) for species S to file atom_proj_dos_tetrahedron_S0042_raw.dat.
  | writing   projected DOS (shifted by the chemical potential) for species W to file atom_proj_dos_tetrahedron_W0043.dat.
  | writing   projected DOS (raw data) for species W to file atom_proj_dos_tetrahedron_W0043_raw.dat.
  | writing   projected DOS (shifted by the chemical potential) for species S to file atom_proj_dos_tetrahedron_S0044.dat.
  | writing   projected DOS (raw data) for species S to file atom_proj_dos_tetrahedron_S0044_raw.dat.
  | writing   projected DOS (shifted by the chemical potential) for species S to file atom_proj_dos_tetrahedron_S0045.dat.
  | writing   projected DOS (raw data) for species S to file atom_proj_dos_tetrahedron_S0045_raw.dat.
  | writing   projected DOS (shifted by the chemical potential) for species W to file atom_proj_dos_tetrahedron_W0046.dat.
  | writing   projected DOS (raw data) for species W to file atom_proj_dos_tetrahedron_W0046_raw.dat.
  | writing   projected DOS (shifted by the chemical potential) for species S to file atom_proj_dos_tetrahedron_S0047.dat.
  | writing   projected DOS (raw data) for species S to file atom_proj_dos_tetrahedron_S0047_raw.dat.
  | writing   projected DOS (shifted by the chemical potential) for species S to file atom_proj_dos_tetrahedron_S0048.dat.
  | writing   projected DOS (raw data) for species S to file atom_proj_dos_tetrahedron_S0048_raw.dat.
  | writing   projected DOS (shifted by the chemical potential) for species W to file atom_proj_dos_tetrahedron_W0049.dat.
  | writing   projected DOS (raw data) for species W to file atom_proj_dos_tetrahedron_W0049_raw.dat.
  | writing   projected DOS (shifted by the chemical potential) for species S to file atom_proj_dos_tetrahedron_S0050.dat.
  | writing   projected DOS (raw data) for species S to file atom_proj_dos_tetrahedron_S0050_raw.dat.
  | writing   projected DOS (shifted by the chemical potential) for species S to file atom_proj_dos_tetrahedron_S0051.dat.
  | writing   projected DOS (raw data) for species S to file atom_proj_dos_tetrahedron_S0051_raw.dat.
  | writing   projected DOS (shifted by the chemical potential) for species W to file atom_proj_dos_tetrahedron_W0052.dat.
  | writing   projected DOS (raw data) for species W to file atom_proj_dos_tetrahedron_W0052_raw.dat.
  | writing   projected DOS (shifted by the chemical potential) for species S to file atom_proj_dos_tetrahedron_S0053.dat.
  | writing   projected DOS (raw data) for species S to file atom_proj_dos_tetrahedron_S0053_raw.dat.
  | writing   projected DOS (shifted by the chemical potential) for species S to file atom_proj_dos_tetrahedron_S0054.dat.
  | writing   projected DOS (raw data) for species S to file atom_proj_dos_tetrahedron_S0054_raw.dat.
  | writing   projected DOS (shifted by the chemical potential) for species W to file atom_proj_dos_tetrahedron_W0055.dat.
  | writing   projected DOS (raw data) for species W to file atom_proj_dos_tetrahedron_W0055_raw.dat.
  | writing   projected DOS (shifted by the chemical potential) for species S to file atom_proj_dos_tetrahedron_S0056.dat.
  | writing   projected DOS (raw data) for species S to file atom_proj_dos_tetrahedron_S0056_raw.dat.
  | writing   projected DOS (shifted by the chemical potential) for species S to file atom_proj_dos_tetrahedron_S0057.dat.
  | writing   projected DOS (raw data) for species S to file atom_proj_dos_tetrahedron_S0057_raw.dat.
  | writing   projected DOS (shifted by the chemical potential) for species W to file atom_proj_dos_tetrahedron_W0058.dat.
  | writing   projected DOS (raw data) for species W to file atom_proj_dos_tetrahedron_W0058_raw.dat.
  | writing   projected DOS (shifted by the chemical potential) for species S to file atom_proj_dos_tetrahedron_S0059.dat.
  | writing   projected DOS (raw data) for species S to file atom_proj_dos_tetrahedron_S0059_raw.dat.
  | writing   projected DOS (shifted by the chemical potential) for species S to file atom_proj_dos_tetrahedron_S0060.dat.
  | writing   projected DOS (raw data) for species S to file atom_proj_dos_tetrahedron_S0060_raw.dat.
  | writing   projected DOS (shifted by the chemical potential) for species W to file atom_proj_dos_tetrahedron_W0061.dat.
  | writing   projected DOS (raw data) for species W to file atom_proj_dos_tetrahedron_W0061_raw.dat.
  | writing   projected DOS (shifted by the chemical potential) for species S to file atom_proj_dos_tetrahedron_S0062.dat.
  | writing   projected DOS (raw data) for species S to file atom_proj_dos_tetrahedron_S0062_raw.dat.
  | writing   projected DOS (shifted by the chemical potential) for species S to file atom_proj_dos_tetrahedron_S0063.dat.
  | writing   projected DOS (raw data) for species S to file atom_proj_dos_tetrahedron_S0063_raw.dat.
  | writing   projected DOS (shifted by the chemical potential) for species W to file atom_proj_dos_tetrahedron_W0064.dat.
  | writing   projected DOS (raw data) for species W to file atom_proj_dos_tetrahedron_W0064_raw.dat.
  | writing   projected DOS (shifted by the chemical potential) for species S to file atom_proj_dos_tetrahedron_S0065.dat.
  | writing   projected DOS (raw data) for species S to file atom_proj_dos_tetrahedron_S0065_raw.dat.
  | writing   projected DOS (shifted by the chemical potential) for species S to file atom_proj_dos_tetrahedron_S0066.dat.
  | writing   projected DOS (raw data) for species S to file atom_proj_dos_tetrahedron_S0066_raw.dat.
  | writing   projected DOS (shifted by the chemical potential) for species W to file atom_proj_dos_tetrahedron_W0067.dat.
  | writing   projected DOS (raw data) for species W to file atom_proj_dos_tetrahedron_W0067_raw.dat.
  | writing   projected DOS (shifted by the chemical potential) for species S to file atom_proj_dos_tetrahedron_S0068.dat.
  | writing   projected DOS (raw data) for species S to file atom_proj_dos_tetrahedron_S0068_raw.dat.
  | writing   projected DOS (shifted by the chemical potential) for species S to file atom_proj_dos_tetrahedron_S0069.dat.
  | writing   projected DOS (raw data) for species S to file atom_proj_dos_tetrahedron_S0069_raw.dat.
  | writing   projected DOS (shifted by the chemical potential) for species W to file atom_proj_dos_tetrahedron_W0070.dat.
  | writing   projected DOS (raw data) for species W to file atom_proj_dos_tetrahedron_W0070_raw.dat.
  | writing   projected DOS (shifted by the chemical potential) for species S to file atom_proj_dos_tetrahedron_S0071.dat.
  | writing   projected DOS (raw data) for species S to file atom_proj_dos_tetrahedron_S0071_raw.dat.
  | writing   projected DOS (shifted by the chemical potential) for species S to file atom_proj_dos_tetrahedron_S0072.dat.
  | writing   projected DOS (raw data) for species S to file atom_proj_dos_tetrahedron_S0072_raw.dat.
  | writing   projected DOS (shifted by the chemical potential) for species W to file atom_proj_dos_tetrahedron_W0073.dat.
  | writing   projected DOS (raw data) for species W to file atom_proj_dos_tetrahedron_W0073_raw.dat.
  | writing   projected DOS (shifted by the chemical potential) for species S to file atom_proj_dos_tetrahedron_S0074.dat.
  | writing   projected DOS (raw data) for species S to file atom_proj_dos_tetrahedron_S0074_raw.dat.
  | writing   projected DOS (shifted by the chemical potential) for species S to file atom_proj_dos_tetrahedron_S0075.dat.
  | writing   projected DOS (raw data) for species S to file atom_proj_dos_tetrahedron_S0075_raw.dat.

  Mulliken analysis                                       :  max(cpu_time)    wall_clock(cpu1)
  | Time for Mulliken analysis (scalar relativistic)      :          2.489               2.868
  | Time for Mulliken analysis (spin-orbit coupled)       :          6.719               7.183
  | Total time for Mulliken analysis                      :          9.208              10.051
------------------------------------------------------------

------------------------------------------------------------------------------
  Final output of selected total energy values:

  The following output summarizes some interesting total energy values
  at the end of a run (AFTER all relaxation, molecular dynamics, etc.).

  | Total energy of the DFT / Hartree-Fock s.c.f. calculation      :      -11861477.311044890 eV
  | Final zero-broadening corrected energy (caution - metals only) :      -11861477.311044890 eV
  | Total energy after non-SC SOC correction (DO NOT USE)          :      -11861506.440644015 eV
  | For reference only, the value of 1 Hartree used in FHI-aims is :             27.211384500 eV
  | For reference only, the overall average (free atom contribution
  | + realspace contribution) of the electrostatic potential after
  | s.c.f. convergence is                                          :             -1.221783318 eV

  Before relying on these values, please be sure to understand exactly which
  total energy value is referred to by a given number. Different objects may
  all carry the same name 'total energy'. Definitions:

  Total energy of the DFT / Hartree-Fock s.c.f. calculation:
  | Note that this energy does not include ANY quantities calculated after the
  | s.c.f. cycle, in particular not ANY RPA, MP2, etc. many-body perturbation terms.

  Final zero-broadening corrected energy:
  | For metallic systems only, a broadening of the occupation numbers at the Fermi
  | level can be extrapolated back to zero broadening by an electron-gas inspired
  | formula. For all systems that are not real metals, this value can be
  | meaningless and should be avoided.

------------------------------------------------------------------------------
  Methods described in the following list of references were used in this FHI-aims run.
  If you publish the results, please make sure to cite these reference if they apply.
  FHI-aims is an academic code, and for our developers (often, Ph.D. students
  and postdocs), scientific credit in the community is essential.
  Thank you for helping us!

  For any use of FHI-aims, please cite:

    Volker Blum, Ralf Gehrke, Felix Hanke, Paula Havu, Ville Havu,
    Xinguo Ren, Karsten Reuter, and Matthias Scheffler
    'Ab initio molecular simulations with numeric atom-centered orbitals'
    Computer Physics Communications 180, 2175-2196 (2009)
    http://dx.doi.org/10.1016/j.cpc.2009.06.022


  The provided symmetry information was generated with SPGlib:

    Atsushi Togo, Yusuke Seto, Dimitar Pashov
    SPGlib 1.7.3 obtained from http://spglib.sourceforge.net
    Copyright (C) 2008 Atsushi Togo


  For second-variational spin-orbit coupling used in your run, please cite:

    William P. Huhn and Volker Blum,
    'One-hundred-three compound band-structure benchmark of post-self-consistent'
    'spin-orbit coupling treatments in density functional theory'
    Phys. Rev. Materials 1, 033803 (2017).


  The ELSI infrastructure was used in your run to solve the Kohn-Sham electronic structure.
  Please check out http://elsi-interchange.org to learn more.
  If scalability is important for your project, please acknowledge ELSI by citing:

    V. W-z. Yu, F. Corsetti, A. Garcia, W. P. Huhn, M. Jacquelin, W. Jia,
    B. Lange, L. Lin, J. Lu, W. Mi, A. Seifitokaldani, A. Vazquez-Mayagoitia,
    C. Yang, H. Yang, and V. Blum
    'ELSI: A unified software interface for Kohn-Sham electronic structure solvers'
    Computer Physics Communications 222, 267-285 (2018).
    http://dx.doi.org/10.1016/j.cpc.2017.09.007


  For the real-space grid partitioning and parallelization used in this calculation, please cite:

    Ville Havu, Volker Blum, Paula Havu, and Matthias Scheffler,
    'Efficient O(N) integration for all-electron electronic structure calculation'
    'using numerically tabulated basis functions'
    Journal of Computational Physics 228, 8367-8379 (2009).
    http://dx.doi.org/10.1016/j.jcp.2009.08.008

  Of course, there are many other important community references, e.g., those cited in the
  above references. Our list is limited to references that describe implementations in the
  FHI-aims code. The reason is purely practical (length of this list) - please credit others as well.

   One or more s.c.f. cycles took more than 50 s.c.f. iterations.
   It might be worth adjusting your convergence settings. For example,
   metals need a larger broadening and a smaller "charge_mix_param" value than semiconductors.

------------------------------------------------------------
          Leaving FHI-aims.
          Date     :  20210906, Time     :  174224.769

          Computational steps:
          | Number of self-consistency cycles          :           51
          | Number of SCF (re)initializations          :            1

          Detailed time accounting                     :  max(cpu_time)    wall_clock(cpu1)
          | Total time                                 :     1538.722 s        1541.315 s
          | Preparation time                           :        1.105 s           1.267 s
          | Boundary condition initalization           :        1.761 s           1.766 s
          | Grid partitioning                          :        2.351 s           2.354 s
          | Preloading free-atom quantities on grid    :        1.301 s           1.313 s
          | Free-atom superposition energy             :        0.208 s           0.211 s
          | Total time for integrations                :      271.411 s         271.635 s
          | Total time for solution of K.-S. equations :      385.038 s         385.385 s
          | Total time for density & force components  :      567.359 s         567.831 s
          | Total time for mixing & preconditioning    :       36.473 s          36.501 s
          | Total time for Hartree multipole update    :        0.635 s           0.634 s
          | Total time for Hartree multipole sum       :      184.880 s         184.973 s
          | Total time for total energy evaluation     :        0.058 s           0.056 s
          | Total time for scaled ZORA corrections     :        0.000 s           0.000 s
          | Total time for vdW correction              :       15.438 s          15.616 s
          | Total time for perturbative SOC            :       59.660 s          59.721 s
          | Total time for Mulliken analysis           :        9.313 s          10.051 s

          Partial memory accounting:
          | Residual value for overall tracked memory usage across tasks:     0.000000 MB (should be 0.000000 MB)
          | Peak values for overall tracked memory usage:
          |   Minimum:      532.602 MB (on task  7 after allocating temp_cmplx_eienvec)
          |   Maximum:      536.686 MB (on task  0 after allocating temp_cmplx_eienvec)
          |   Average:      535.096 MB
          | Largest tracked array allocation:
          |   Minimum:      133.671 MB (soc_matrix on task  0)
          |   Maximum:      133.671 MB (soc_matrix on task  0)
          |   Average:      133.671 MB
          Note:  These values currently only include a subset of arrays which are explicitly tracked.
          The "true" memory usage will be greater.

          Have a nice day.
------------------------------------------------------------
