------------------------------------------------------------
          Invoking FHI-aims ...

          When using FHI-aims, please cite the following reference:

            Volker Blum, Ralf Gehrke, Felix Hanke, Paula Havu,
            Ville Havu, Xinguo Ren, Karsten Reuter, and Matthias Scheffler,
            'Ab Initio Molecular Simulations with Numeric Atom-Centered Orbitals',
            Computer Physics Communications 180, 2175-2196 (2009)

          In addition, many other developments in FHI-aims are likely important for
          your particular application. A partial list of references is given at the end of
          this file. Thank you for giving credit to the authors of these developments.

          For any questions about FHI-aims, please visit our slack channel at

            https://fhi-aims.slack.com

          and our main development and support site at

            https://aims-git.rz-berlin.mpg.de .

          The latter site, in particular, has a wiki to collect information, as well
          as an issue tracker to log discussions, suggest improvements, and report issues
          or bugs. https://aims-git.rz-berlin.mpg.de is also the main development site
          of the project and all new and updated code versions can be obtained there.
          Please send an email to aims-coordinators@fhi-berlin.mpg.de and we will add
          you to these sites. They are for you and everyone is welcome there.

------------------------------------------------------------



  Date     :  20210927, Time     :  125125.300
  Time zero on CPU 1             :   0.202312000000000E+00  s.
  Internal wall clock time zero  :           401979085.300  s.

  FHI-aims created a unique identifier for this run for later identification
  aims_uuid : C08FD180-2637-49C7-AAE8-5AEA51FDFD2C

  Build configuration of the current instance of FHI-aims
  -------------------------------------------------------
  FHI-aims version      : 210513
  Commit number         : 1a2d0b161
  CMake host system     : Linux-4.12.14-122.63-default
  CMake version         : 3.5.2
  Fortran compiler      : /mpcdf/soft/SLE_12/packages/x86_64/intel_parallel_studio/2020.1/compilers_and_libraries_2020.1.217/linux/mpi/intel64/bin/mpiifort (Intel) version 19.1.0.20200306
  Fortran compiler flags: -O3 -ip -fp-model precise
  C compiler            : /mpcdf/soft/SLE_12/packages/x86_64/intel/19.1.1/bin/icc (Intel) version 19.1.0.20200306
  C compiler flags      : -O3 -ip -fp-model precise -std=gnu99
  C++ compiler          : /mpcdf/soft/SLE_12/packages/x86_64/intel/19.1.1/bin/icpc (Intel) version 19.1.0.20200306
  C++ compiler flags    : -O3 -ip -fp-model precise -std=gnu99
  Using MPI
  Using ScaLAPACK
  Using LibXC
  Using i-PI
  Using RLSY
  Linking against: /mpcdf/soft/SLE_12/packages/x86_64/intel_parallel_studio/2020.1/mkl/lib/intel64/libmkl_intel_lp64.so
                   /mpcdf/soft/SLE_12/packages/x86_64/intel_parallel_studio/2020.1/mkl/lib/intel64/libmkl_sequential.so
                   /mpcdf/soft/SLE_12/packages/x86_64/intel_parallel_studio/2020.1/mkl/lib/intel64/libmkl_core.so
                   /mpcdf/soft/SLE_12/packages/x86_64/intel_parallel_studio/2020.1/mkl/lib/intel64/libmkl_blacs_intelmpi_lp64.so
                   /mpcdf/soft/SLE_12/packages/x86_64/intel_parallel_studio/2020.1/mkl/lib/intel64/libmkl_scalapack_lp64.so

  Using       40 parallel tasks.
  Task        0 on host co1603 reporting.
  Task        1 on host co1603 reporting.
  Task        2 on host co1603 reporting.
  Task        3 on host co1603 reporting.
  Task        4 on host co1603 reporting.
  Task        5 on host co1603 reporting.
  Task        6 on host co1603 reporting.
  Task        7 on host co1603 reporting.
  Task        8 on host co1603 reporting.
  Task        9 on host co1603 reporting.
  Task       10 on host co1603 reporting.
  Task       11 on host co1603 reporting.
  Task       12 on host co1603 reporting.
  Task       13 on host co1603 reporting.
  Task       14 on host co1603 reporting.
  Task       15 on host co1603 reporting.
  Task       16 on host co1603 reporting.
  Task       17 on host co1603 reporting.
  Task       18 on host co1603 reporting.
  Task       19 on host co1603 reporting.
  Task       20 on host co1603 reporting.
  Task       21 on host co1603 reporting.
  Task       22 on host co1603 reporting.
  Task       23 on host co1603 reporting.
  Task       24 on host co1603 reporting.
  Task       25 on host co1603 reporting.
  Task       26 on host co1603 reporting.
  Task       27 on host co1603 reporting.
  Task       28 on host co1603 reporting.
  Task       29 on host co1603 reporting.
  Task       30 on host co1603 reporting.
  Task       31 on host co1603 reporting.
  Task       32 on host co1603 reporting.
  Task       33 on host co1603 reporting.
  Task       34 on host co1603 reporting.
  Task       35 on host co1603 reporting.
  Task       36 on host co1603 reporting.
  Task       37 on host co1603 reporting.
  Task       38 on host co1603 reporting.
  Task       39 on host co1603 reporting.

  Performing system and environment tests:
  | Environment variable OMP_NUM_THREADS correctly set to 1.
  | Checking for ScaLAPACK...
  | Testing pdtran()...
  | All pdtran() tests passed.

  Obtaining array dimensions for all initial allocations:
  
  -----------------------------------------------------------------------
  Parsing control.in (first pass over file, find array dimensions only).
  The contents of control.in will be repeated verbatim below
  unless switched off by setting 'verbatim_writeout .false.' .
  in the first line of control.in .
  -----------------------------------------------------------------------
  
  ##### Physical settings  ################
  xc                 pbe
  spin               none
  charge      0.0
  relativistic       atomic_zora scalar
  #elsi_restart read
  # SCF settings
  
  #vdw_correction_hirshfeld
  # k-grid settings  (to be adjusted)
  #empty_states 8
  #use_dipole_correction
  #include_spin_orbit non_self_consistent
  
  mixer   pulay
  n_max_pulay        12 # high for metal
  charge_mix_param   0.1 #low for metal
  many_body_dispersion_nl    beta=0.81
  ################################################################################
  #
  #  FHI-aims code project
  # Volker Blum, Fritz Haber Institute Berlin, 2009
  #
  #  Suggested "tight" defaults for S atom (to be pasted into control.in file)
  #
  #  Revised Jan 04, 2011, following tests (SiC) done by Lydia Nemec:
  #     d and g functions of tier 2 now enabled by default.
  #
  ################################################################################
    species        S
  #     global species definitions
      nucleus             16
      mass                32.065
  #
      l_hartree           6
  #
      cut_pot             4.0          2.0  1.0
      basis_dep_cutoff    1e-4
  #
      radial_base         44 7.0
      radial_multiplier   2
      angular_grids       specified
        division   0.4665  110
        division   0.5810  194
        division   0.7139  302
        division   0.8274  434
  #      division   0.9105  590
  #      division   1.0975  770
  #      division   1.2028  974
  #      outer_grid  974
        outer_grid  434
  ################################################################################
  #
  #  Definition of "minimal" basis
  #
  ################################################################################
  #     valence basis states
      valence      3  s   2.
      valence      3  p   4.
  #     ion occupancy
      ion_occ      3  s   1.
      ion_occ      3  p   3.
  ################################################################################
  #
  #  Suggested additional basis functions. For production calculations,
  #  uncomment them one after another (the most important basis functions are
  #  listed first).
  #
  #  Constructed for dimers: 1.6 A, 1.9 A, 2.5 A, 3.25 A, 4.0 A
  #
  ################################################################################
  #  "First tier" - improvements: -652.81 meV to -45.53 meV
       ionic 3 d auto
       hydro 2 p 1.8
       hydro 4 f 7
       ionic 3 s auto
  #  "Second tier" - improvements: -30.20 meV to -1.74 meV
       hydro 4 d 6.2
       hydro 5 g 10.8
  #     hydro 4 p 4.9
  #     hydro 5 f 10
  #     hydro 1 s 0.8
  #  "Third tier" - improvements: -1.04 meV to -0.20 meV
  #     hydro 3 d 3.9
  #     hydro 3 d 2.7
  #     hydro 5 g 12
  #     hydro 4 p 10.4
  #     hydro 5 f 12.4
  #     hydro 2 s 1.9
  #  "Fourth tier" - improvements: -0.35 meV to -0.06 meV
  #     hydro 4 d 10.4
  #     hydro 4 p 7.2
  #     hydro 4 d 10
  #     hydro 5 g 19.2
  #     hydro 4 s 12
  
  ################################################################################
  #
  # For methods that use the localized form of the "resolution of identity" for
  # the two-electron Coulomb operator (RI_method LVL), particularly Hartree-Fock and
  # hybrid density functional calculations, the highest accuracy can be obtained by
  # uncommenting the line beginning with "for_aux"  below, thus adding an extra g radial
  # function to the construction of the product basis set for the expansion.
  # See Ref. New J. Phys. 17, 093020 (2015) for more information, particularly Figs. 1 and 6.
  #
  ################################################################################
  #
  # for_aux hydro 5 g 6.0
  ################################################################################
  #
  #  FHI-aims code project
  # Volker Blum, Fritz Haber Institute Berlin, 2009
  #
  #  Suggested "tight" defaults for Mo atom (to be pasted into control.in file)
  #
  ################################################################################
    species        Mo
  #     global species definitions
      nucleus             42
      mass                95.94
  #
      l_hartree           6
  #
      cut_pot             4.0  2.0  1.0
      basis_dep_cutoff    1e-4
  #
      radial_base         59 7.0
      radial_multiplier   2
      angular_grids specified
        division   0.3117   50
        division   0.6750  110
        division   1.0351  194
        division   1.2073  302
        division   1.6402  434
  #      division   1.9185  590
  #      division   2.0237  770
  #      division   2.0980  974
  #      division   2.7972 1202
  #      outer_grid  974
        outer_grid  434
  ################################################################################
  #
  #  Definition of "minimal" basis
  #
  ################################################################################
  #     valence basis states
      valence      5  s   1.
      valence      4  p   6.
      valence      4  d   5.
  #     ion occupancy
      ion_occ     5  s   0.
      ion_occ     4  p   6.
      ion_occ     4  d   4.
  ################################################################################
  #
  #  Suggested additional basis functions. For production calculations,
  #  uncomment them one after another (the most important basis functions are
  #  listed first).
  #
  #  Constructed for dimers: 1.675 A, 1.9 A, 2.375 A, 3.00 A, 4.00 A
  #
  ################################################################################
  #  "First tier"  - max. impr. -711.23  meV, min. impr. -21.07 meV
       hydro 4 f 8.4
       hydro 3 d 2.8
       ionic 5 p auto
       hydro 5 g 12
       ionic 5 s auto
  #  "Second tier" - max. impr. -39.38  meV, min. impr. -2.68 meV
  #     hydro 4 f 12.4
  #     hydro 3 d 3.3
  #     hydro 6 h 17.2
  #     hydro 4 f 7.6
  #     hydro 3 p 3.0
  #     hydro 1 s 0.65
  #  "Third tier"  - max. impr. -5.50 meV, min. impr. -0.47 meV
  #     hydro 4 f 29.2
  #     hydro 5 g 11.2
  #     hydro 3 d 6.8
  #     hydro 6 h 14.8
  #     hydro 2 p 2.3
  #     hydro 4 s 3.8
  #  "Fourth tier"  - max. impr. -0.58 meV, min. impr. -0.19 meV
  #     hydro 5 f 6.8
  #     hydro 5 d 14.8
  #     hydro 6 s 7.8
  #     hydro 5 g 20.8
  #     hydro 5 d 10.4
  #     hydro 5 p 9.8
  #  Further functions - -0.17 meV and below
  #     hydro 5 d 3.2
  compute_forces .true.
  final_forces_cleaned .true.
  
  -----------------------------------------------------------------------
  Completed first pass over input file control.in .
  -----------------------------------------------------------------------
  
  
  -----------------------------------------------------------------------
  Parsing geometry.in (first pass over file, find array dimensions only).
  The contents of geometry.in will be repeated verbatim below
  unless switched off by setting 'verbatim_writeout .false.' .
  in the first line of geometry.in .
  -----------------------------------------------------------------------
  
  #
  # temporary structure-file for finite-difference calculation of forces
  # displacement   0.0025 of \# atom     5 direction     0
  #
  atom    2.27134959    5.76124024    7.68191777   S
  atom    2.42460880    7.58564417    6.71883919   S
  atom    0.99745971    8.87604933    7.47886503   S
  atom   -0.65137537    8.87605174    6.22963354   S
  atom   -1.92527808    5.76124812    6.02658336   S
  atom   -0.80210670    4.47085777    7.19204068   S
  atom    1.15067215    4.47085480    6.51645977   S
  atom   -2.07853010    7.58565383    6.98966067   S
  
  -----------------------------------------------------------------------
  Completed first pass over input file geometry.in .
  -----------------------------------------------------------------------
  

  Basic array size parameters:
  | Number of species                 :        2
  | Number of atoms                   :        8
  | Max. basis fn. angular momentum   :        4
  | Max. atomic/ionic basis occupied n:        5
  | Max. number of basis fn. types    :        3
  | Max. radial fns per species/type  :       10
  | Max. logarithmic grid size        :     1436
  | Max. radial integration grid size :      119
  | Max. angular integration grid size:      434
  | Max. angular grid division number :        8
  | Radial grid for Hartree potential :     1436
  | Number of spin channels           :        1

------------------------------------------------------------
          Reading file control.in.
------------------------------------------------------------
  XC: Using PBE gradient-corrected functionals.
  Spin treatment: No spin polarisation.
  Charge =   0.000000E+00: Neutral system requested explicitly.
  Scalar relativistic treatment of kinetic energy: on-site free-atom approximation to ZORA.
  Using pulay charge density mixing.
  Pulay mixing - number of memorized iterations:   12
  Charge density mixing - mixing parameter:     0.1000
  Using libMBD for calculating MBD and TS energies
 
  Reading configuration options for species S                   .
  | Found nuclear charge :  16.0000
  | Found atomic mass :    32.0650000000000      amu
  | Found l_max for Hartree potential  :   6
  | Found cutoff potl. onset [A], width [A], scale factor :    4.00000    2.00000    1.00000
  | Threshold for basis-dependent cutoff potential is   0.100000E-03
  | Found data for basic radial integration grid :    44 points, outermost radius =    7.000 A
  | Found multiplier for basic radial grid :   2
  | Found angular grid specification: user-specified.
  | Specified grid contains     5 separate shells.
  | Check grid settings after all constraints further below.
  | Found free-atom valence shell :  3 s   2.000
  | Found free-atom valence shell :  3 p   4.000
  | Found free-ion valence shell :  3 s   1.000
  | Found free-ion valence shell :  3 p   3.000
  | Found ionic basis function :  3 d , default cutoff radius.
  | Found hydrogenic basis function :  2 p   1.800
  | Found hydrogenic basis function :  4 f   7.000
  | Found ionic basis function :  3 s , default cutoff radius.
  | Found hydrogenic basis function :  4 d   6.200
  | Found hydrogenic basis function :  5 g  10.800
  Species S                   : Missing cutoff potential type.
  Defaulting to exp(1/x)/(1-x)^2 type cutoff potential.
  Species S : No 'logarithmic' tag. Using default grid for free atom:
  | Default logarithmic grid data [bohr] : 0.1000E-03 0.1000E+03 0.1012E+01
  | Will include ionic basis functions of  2.0-fold positive S                    ion.
  Species S : On-site basis accuracy parameter (for Gram-Schmidt orthonormalisation) not specified.
  Using default value basis_acc =  0.1000000E-03.
  Species S                   : Using default innermost maximum threshold i_radial=  2 for radial functions.
  Species S                   : Default cutoff onset for free atom density etc. : 0.40000000E+01 AA.
  Species S                   : Basic radial grid will be enhanced according to radial_multiplier =   2, to contain    89 grid points.
 
  Reading configuration options for species Mo                  .
  | Found nuclear charge :  42.0000
  | Found atomic mass :    95.9400000000000      amu
  | Found l_max for Hartree potential  :   6
  | Found cutoff potl. onset [A], width [A], scale factor :    4.00000    2.00000    1.00000
  | Threshold for basis-dependent cutoff potential is   0.100000E-03
  | Found data for basic radial integration grid :    59 points, outermost radius =    7.000 A
  | Found multiplier for basic radial grid :   2
  | Found angular grid specification: user-specified.
  | Specified grid contains     6 separate shells.
  | Check grid settings after all constraints further below.
  | Found free-atom valence shell :  5 s   1.000
  | Found free-atom valence shell :  4 p   6.000
  | Found free-atom valence shell :  4 d   5.000
  | Found free-ion valence shell :  5 s   0.000
  | Found free-ion valence shell :  4 p   6.000
  | Found free-ion valence shell :  4 d   4.000
  | Found hydrogenic basis function :  4 f   8.400
  | Found hydrogenic basis function :  3 d   2.800
  | Found ionic basis function :  5 p , default cutoff radius.
  | Found hydrogenic basis function :  5 g  12.000
  | Found ionic basis function :  5 s , default cutoff radius.
  Species Mo                  : Missing cutoff potential type.
  Defaulting to exp(1/x)/(1-x)^2 type cutoff potential.
  Species Mo: No 'logarithmic' tag. Using default grid for free atom:
  | Default logarithmic grid data [bohr] : 0.1000E-03 0.1000E+03 0.1012E+01
  | Will include ionic basis functions of  2.0-fold positive Mo                   ion.
  Species Mo: On-site basis accuracy parameter (for Gram-Schmidt orthonormalisation) not specified.
  Using default value basis_acc =  0.1000000E-03.
  Species Mo                  : Using default innermost maximum threshold i_radial=  2 for radial functions.
  Species Mo                  : Default cutoff onset for free atom density etc. : 0.40000000E+01 AA.
  Species Mo                  : Basic radial grid will be enhanced according to radial_multiplier =   2, to contain   119 grid points.
  Forces will be computed.
  Cleaning forces before final output.
 
  Finished reading input file 'control.in'.
 
------------------------------------------------------------


------------------------------------------------------------
          Reading geometry description geometry.in.
------------------------------------------------------------
  | The smallest distance between any two atoms is         2.06633850 AA.
  | The first atom of this pair is atom number                      6 .
  | The second atom of this pair is atom number                     7 .
  Input structure read successfully.
  The structure contains        8 atoms,  and a total of        128.000 electrons.

  Input geometry:
  | No unit cell requested.
  | Atomic structure:
  |       Atom                x [A]            y [A]            z [A]
  |    1: Species S             2.27134959        5.76124024        7.68191777
  |    2: Species S             2.42460880        7.58564417        6.71883919
  |    3: Species S             0.99745971        8.87604933        7.47886503
  |    4: Species S            -0.65137537        8.87605174        6.22963354
  |    5: Species S            -1.92527808        5.76124812        6.02658336
  |    6: Species S            -0.80210670        4.47085777        7.19204068
  |    7: Species S             1.15067215        4.47085480        6.51645977
  |    8: Species S            -2.07853010        7.58565383        6.98966067

 
  Finished reading input file 'control.in'.
 

------------------------------------------------------------
          Reading geometry description geometry.in.
------------------------------------------------------------
 
  Consistency checks for stacksize environment parameter are next.
 
  | Maximum stacksize for task 0: unlimited
  | Maximum stacksize for task 1: unlimited
  | Maximum stacksize for task 2: unlimited
  | Maximum stacksize for task 3: unlimited
  | Maximum stacksize for task 4: unlimited
  | Maximum stacksize for task 5: unlimited
  | Maximum stacksize for task 6: unlimited
  | Maximum stacksize for task 7: unlimited
  | Maximum stacksize for task 8: unlimited
  | Maximum stacksize for task 9: unlimited
  | Maximum stacksize for task 10: unlimited
  | Maximum stacksize for task 11: unlimited
  | Maximum stacksize for task 12: unlimited
  | Maximum stacksize for task 13: unlimited
  | Maximum stacksize for task 14: unlimited
  | Maximum stacksize for task 15: unlimited
  | Maximum stacksize for task 16: unlimited
  | Maximum stacksize for task 17: unlimited
  | Maximum stacksize for task 18: unlimited
  | Maximum stacksize for task 19: unlimited
  | Maximum stacksize for task 20: unlimited
  | Maximum stacksize for task 21: unlimited
  | Maximum stacksize for task 22: unlimited
  | Maximum stacksize for task 23: unlimited
  | Maximum stacksize for task 24: unlimited
  | Maximum stacksize for task 25: unlimited
  | Maximum stacksize for task 26: unlimited
  | Maximum stacksize for task 27: unlimited
  | Maximum stacksize for task 28: unlimited
  | Maximum stacksize for task 29: unlimited
  | Maximum stacksize for task 30: unlimited
  | Maximum stacksize for task 31: unlimited
  | Maximum stacksize for task 32: unlimited
  | Maximum stacksize for task 33: unlimited
  | Maximum stacksize for task 34: unlimited
  | Maximum stacksize for task 35: unlimited
  | Maximum stacksize for task 36: unlimited
  | Maximum stacksize for task 37: unlimited
  | Maximum stacksize for task 38: unlimited
  | Maximum stacksize for task 39: unlimited
  | Current stacksize for task 0: unlimited
  | Current stacksize for task 1: unlimited
  | Current stacksize for task 2: unlimited
  | Current stacksize for task 3: unlimited
  | Current stacksize for task 4: unlimited
  | Current stacksize for task 5: unlimited
  | Current stacksize for task 6: unlimited
  | Current stacksize for task 7: unlimited
  | Current stacksize for task 8: unlimited
  | Current stacksize for task 9: unlimited
  | Current stacksize for task 10: unlimited
  | Current stacksize for task 11: unlimited
  | Current stacksize for task 12: unlimited
  | Current stacksize for task 13: unlimited
  | Current stacksize for task 14: unlimited
  | Current stacksize for task 15: unlimited
  | Current stacksize for task 16: unlimited
  | Current stacksize for task 17: unlimited
  | Current stacksize for task 18: unlimited
  | Current stacksize for task 19: unlimited
  | Current stacksize for task 20: unlimited
  | Current stacksize for task 21: unlimited
  | Current stacksize for task 22: unlimited
  | Current stacksize for task 23: unlimited
  | Current stacksize for task 24: unlimited
  | Current stacksize for task 25: unlimited
  | Current stacksize for task 26: unlimited
  | Current stacksize for task 27: unlimited
  | Current stacksize for task 28: unlimited
  | Current stacksize for task 29: unlimited
  | Current stacksize for task 30: unlimited
  | Current stacksize for task 31: unlimited
  | Current stacksize for task 32: unlimited
  | Current stacksize for task 33: unlimited
  | Current stacksize for task 34: unlimited
  | Current stacksize for task 35: unlimited
  | Current stacksize for task 36: unlimited
  | Current stacksize for task 37: unlimited
  | Current stacksize for task 38: unlimited
  | Current stacksize for task 39: unlimited
 
  Consistency checks for the contents of control.in are next.
 
  MPI_IN_PLACE appears to work with this MPI implementation.
  | Keeping use_mpi_in_place .true. (see manual).
  Target number of points in a grid batch is not set. Defaulting to  100
  Method for grid partitioning is not set. Defaulting to parallel hash+maxmin partitioning.
  Batch size limit is not set. Defaulting to    200
  By default, will store active basis functions for each batch.
  If in need of memory, prune_basis_once .false. can be used to disable this option.
  communication_type for Hartree potential was not specified.
  Defaulting to calc_hartree .
  Pulay mixer: Number of initial linear mixing iterations not set.
  Defaulting to    0 iterations.
  Work space size for distributed Hartree potential not set.
  Defaulting to   0.200000E+03 MB.
  Algorithm-dependent basis array size parameters:
  | n_max_pulay                         :       12
  Maximum number of self-consistency iterations not provided.
  Presetting  1000 iterations.
  Presetting      1001 iterations before the initial mixing cycle
  is restarted anyway using the sc_init_iter criterion / keyword.
  Presetting a factor      1.000 between actual scf density residual
  and density convergence criterion sc_accuracy_rho below which sc_init_iter
  takes no effect.
 * No s.c.f. convergence criteria (sc_accuracy_*) were provided in control.in.
 * The run will proceed with a reasonable default guess, but please check whether.
 * the s.c.f. cycles seem to take too much or too little time.
  Geometry relaxation not requested: no relaxation will be performed.
  Forces evaluation will include force correction term due to incomplete self-consistency (default).
 * Notice: The s.c.f. convergence criterion sc_accuracy_rho was not provided.
 * We used to stop in this case, and ask the user to provide reasonable
 * scf convergence criteria. However, this led some users to employ criteria
 * that led to extremely long run times, e.g., for simple relaxation.
 * We now preset a default value for sc_accuracy_rho if it is not set.
 * You may still wish to check if this setting is too tight or too loose for your needs.
 * Based on n_atoms and forces and force-correction status, FHI-aims chose sc_accuracy_rho =  0.923760E-05 .
  Force calculation: scf convergence accuracy of forces not set.
  Defaulting to 'sc_accuracy_forces not_checked'.
  Handling of forces: Unphysical translation and rotation will be removed from forces.
  No accuracy limit for integral partition fn. given. Defaulting to  0.1000E-14.
  No threshold value for u(r) in integrations given. Defaulting to  0.1000E-05.
  No occupation type (smearing scheme) given. Defaulting to Gaussian broadening, width =  0.1000E-01 eV.
  The width will be adjusted in iteration number     2 of the first full s.c.f. cycle only.
  S.C.F. convergence parameters will be adjusted in iteration number     2 of the first full s.c.f. cycle only.
  No accuracy for occupation numbers given. Defaulting to  0.1000E-12.
  No threshold value for occupation numbers given. Defaulting to  0.0000E+00.
  No accuracy for fermi level given. Defaulting to  0.1000E-19.
  Maximum # of iterations to find E_F not set. Defaulting to  200.
  Preferred method for the eigenvalue solver ('KS_method') not specified in 'control.in'.
  Calling BLACS routine to test compilation state
  Since ScaLAPACK support is enabled, defaulting to ELPA (via ELSI).
  Will not use alltoall communication since running on < 1024 CPUs.
  Threshold for basis singularities not set.
  Default threshold for basis singularities:  0.1000E-04
  partition_type (choice of integration weights) for integrals was not specified.
  | Using a version of the partition function of Stratmann and coworkers ('stratmann_sparse').
  | At each grid point, the set of atoms used to build the partition table is smoothly restricted to
  | only those atoms whose free-atom density would be non-zero at that grid point.
  Partitioning for Hartree potential was not defined. Using partition_type for integrals.
  | Adjusted default value of keyword multip_moments_threshold to:       0.10000000E-11
  | This value may affect high angular momentum components of the Hartree potential in periodic systems.
  No q(lm)/r^(l+1) cutoff set for long-range Hartree potential.
  | Using default value of  0.100000E-09 .
  | Verify using the multipole_threshold keyword.
  Defaulting to new monopole extrapolation.
  Density update method: automatic selection selected.
  Charge integration errors on the 3D integration grid will be compensated
  by explicit normalization and distribution of residual charges.
  Use the "compensate_multipole_errors" flag to change this behaviour.
  Set 'collect_eigenvectors' to be '.true.' for use_density_matrix .false.
 
  Consistency checks for the contents of geometry.in are next.
 
  Number of empty states per atom not set in control.in - providing a guess from actual geometry.
  | Total number of empty states used during s.c.f. cycle:       24
  If you use a very high smearing, use empty_states (per atom!) in control.in to increase this value.

  Structure-dependent array size parameters: 
  | Maximum number of distinct radial functions  :       26
  | Maximum number of basis functions            :      312
  | Number of Kohn-Sham states (occupied + empty):       88
------------------------------------------------------------

------------------------------------------------------------
          Preparing all fixed parts of the calculation.
------------------------------------------------------------
  Determining machine precision:
    2.225073858507201E-308
  Setting up grids for atomic and cluster calculations.

  Creating wave function, potential, and density for free atoms.

  Species: S

  List of occupied orbitals and eigenvalues:
    n    l              occ      energy [Ha]    energy [eV]
    1    0           2.0000       -88.680731     -2413.1255
    2    0           2.0000        -7.781719      -211.7513
    3    0           2.0000        -0.633662       -17.2428
    2    1           6.0000        -5.751976      -156.5192
    3    1           4.0000        -0.257086        -6.9957


  Species: Mo

  List of occupied orbitals and eigenvalues:
    n    l              occ      energy [Ha]    energy [eV]
    1    0           2.0000      -745.344654    -20281.8600
    2    0           2.0000      -103.288246     -2810.6162
    3    0           2.0000       -17.516687      -476.6533
    4    0           2.0000        -2.358559       -64.1796
    5    0           1.0000        -0.145159        -3.9500
    2    1           6.0000       -92.308627     -2511.8455
    3    1           6.0000       -13.936005      -379.2180
    4    1           6.0000        -1.408138       -38.3174
    3    2          10.0000        -8.119011      -220.9295
    4    2           5.0000        -0.132984        -3.6187


  Adding cutoff potential to free-atom effective potential.
  Creating fixed part of basis set: Ionic, confined, hydrogenic.
 
  S                    ion:

  List of free ionic orbitals and eigenvalues:
    n    l      energy [Ha]    energy [eV]
    1    0       -89.703778     -2440.9640
    2    0        -8.775428      -238.7916
    3    0        -1.470343       -40.0101
    2    1        -6.747660      -183.6132
    3    1        -1.048627       -28.5346


  List of ionic basis orbitals and eigenvalues:
    n    l      energy [Ha]    energy [eV]    outer radius [A]
    3    2        -0.495605       -13.4861       5.386362
    3    0        -1.470336       -40.0099       3.967934

 
  S                    hydrogenic:
 
  List of hydrogenic basis orbitals: 
    n    l      effective z      eigenvalue [eV]  inner max. [A]     outer max. [A]     outer radius [A]   
    2    1         1.800000       -11.0118           1.168531           1.168531           5.452614
    4    3         7.000000       -41.6672           1.212182           1.212182           5.066981
    4    2         6.200000       -32.6848           0.582121           1.814567           5.386362
    5    4        10.800000       -63.4785           1.227092           1.227092           4.766538
 
 
  Mo                   ion:

  List of free ionic orbitals and eigenvalues:
    n    l      energy [Ha]    energy [eV]
    1    0      -746.048685    -20301.0176
    2    0      -103.980912     -2829.4646
    3    0       -18.206601      -495.4268
    4    0        -3.040545       -82.7374
    2    1       -93.001013     -2530.6863
    3    1       -14.625827      -397.9890
    4    1        -2.084855       -56.7318
    3    2        -8.808854      -239.7011
    4    2        -0.765435       -20.8285


  List of ionic basis orbitals and eigenvalues:
    n    l      energy [Ha]    energy [eV]    outer radius [A]
    5    1        -0.465587       -12.6693       5.456393
    5    0        -0.650331       -17.6964       5.390095

 
  Mo                   hydrogenic:
 
  List of hydrogenic basis orbitals: 
    n    l      effective z      eigenvalue [eV]  inner max. [A]     outer max. [A]     outer radius [A]   
    4    3         8.400000       -60.0010           1.009788           1.009788           4.487018
    3    2         2.800000       -11.8048           1.687401           1.687401           5.456393
    5    4        12.000000       -78.3687           1.100005           1.100005           4.432498
 
  Creating atomic-like basis functions for current effective potential.

  Species S                   :

  List of atomic basis orbitals and eigenvalues:
    n    l      energy [Ha]    energy [eV]    outer radius [A]
    1    0       -88.680731     -2413.1255       0.682391
    2    0        -7.781719      -211.7513       2.289014
    3    0        -0.633662       -17.2428       5.256262
    2    1        -5.751976      -156.5192       2.555240
    3    1        -0.257086        -6.9957       5.386362


  Species Mo                  :

  List of atomic basis orbitals and eigenvalues:
    n    l      energy [Ha]    energy [eV]    outer radius [A]
    1    0      -745.344654    -20281.8600       0.247552
    2    0      -103.288246     -2810.6162       0.682864
    3    0       -17.516687      -476.6533       1.626637
    4    0        -2.358559       -64.1796       4.220963
    5    0        -0.145159        -3.9500       5.456393
    2    1       -92.308627     -2511.8455       0.699766
    3    1       -13.936005      -379.2180       1.793761
    4    1        -1.408138       -38.3174       4.828511
    3    2        -8.119011      -220.9295       2.181285
    4    2        -0.132984        -3.6187       5.390095

  Assembling full basis from fixed parts.
  | Species S :   atomic orbital   1 s accepted.
  | Species S :   atomic orbital   2 s accepted.
  | Species S :    ionic orbital   3 s accepted.
  | Species S :   atomic orbital   3 s accepted.
  | Species S :   atomic orbital   2 p accepted.
  | Species S :   atomic orbital   3 p accepted.
  | Species S :    hydro orbital   2 p accepted.
  | Species S :    ionic orbital   3 d accepted.
  | Species S :    hydro orbital   4 d accepted.
  | Species S :    hydro orbital   4 f accepted.
  | Species S :    hydro orbital   5 g accepted.
  | Species Mo :   atomic orbital   1 s accepted.
  | Species Mo :   atomic orbital   2 s accepted.
  | Species Mo :   atomic orbital   3 s accepted.
  | Species Mo :   atomic orbital   4 s accepted.
  | Species Mo :    ionic orbital   5 s accepted.
  | Species Mo :   atomic orbital   5 s accepted.
  | Species Mo :   atomic orbital   2 p accepted.
  | Species Mo :   atomic orbital   3 p accepted.
  | Species Mo :   atomic orbital   4 p accepted.
  | Species Mo :    ionic orbital   5 p accepted.
  | Species Mo :   atomic orbital   3 d accepted.
  | Species Mo :   atomic orbital   4 d accepted.
  | Species Mo :    hydro orbital   3 d accepted.
  | Species Mo :    hydro orbital   4 f accepted.
  | Species Mo :    hydro orbital   5 g accepted.
 
  Basis size parameters after reduction:
  | Total number of radial functions:       26
  | Total number of basis functions :      312
 
  Per-task memory consumption for arrays in subroutine allocate_ext:
  |           9.566776MB.
  Testing on-site integration grid accuracy.
  |  Species  Function  <phi|h_atom|phi> (log., in eV)  <phi|h_atom|phi> (rad., in eV)
           1        1              -2413.1254568977              -2413.1254096663
           1        2               -211.7513411281               -211.7513404762
           1        3                -16.9725280787                -16.9725279206
           1        4                  7.6024436204                  7.6024549059
           1        5               -156.5192206929               -156.5192205451
           1        6                 -6.9959757887                 -6.9959777655
           1        7                  6.8896462808                  6.8895564741
           1        8                  6.0214250550                  6.0214220200
           1        9                 19.6206468977                 19.6206494558
           1       10                 24.7008710786                 24.7008710738
           1       11                 47.5292252001                 47.5292260486
           2       12             -20281.8599610543             -20281.8584300616
           2       13              -2810.6161812280              -2810.6161551921
           2       14               -476.6533163555               -476.6533136395
           2       15                -64.1796433667                -64.1796426456
           2       16                 -3.3691762756                 -3.3691802887
           2       17                  4.4704608512                  4.4699102345
           2       18              -2511.8455406047              -2511.8455385741
           2       19               -379.2179896350               -379.2179882338
           2       20                -38.3173891619                -38.3173886619
           2       21                  0.2493245095                  0.2492931069
           2       22               -220.9295301098               -220.9295297081
           2       23                 -3.6195697699                 -3.6195754704
           2       24                  7.1428000922                  7.1426882355
           2       25                 23.3975871087                 23.3975871819
           2       26                 50.2449608881                 50.2449608586

  Preparing densities etc. for the partition functions (integrals / Hartree potential).
 Frequency grid relative error: 0.12418110983958286E-009                        
   
 Will use parallel mode: atoms     
 BLACS block size: 3                                                 

  Preparations completed.
  max(cpu_time)          :      0.443 s.
  Wall clock time (cpu1) :      0.443 s.
------------------------------------------------------------

------------------------------------------------------------
          Begin self-consistency loop: Initialization.

          Date     :  20210927, Time     :  125125.804
------------------------------------------------------------

  Initializing index lists of integration centers etc. from given atomic structure:
  | Number of centers in hartree potential         :         8
  | Number of centers in hartree multipole         :         8
  | Number of centers in electron density summation:         8
  | Number of centers in basis integrals           :         8
  | Number of centers in integrals                 :         8
  | Number of centers in hamiltonian               :         8
  * Using 40 tasks for Scalapack Eigenvalue solver.
  Detailed listing of tasks and assigned k-points:
  (for non-periodic systems, the "k-point" denotes an internal label only)
   Task     0 k-point     1 on co1603
   Task     1 k-point     1 on co1603
   Task     2 k-point     1 on co1603
   Task     3 k-point     1 on co1603
   Task     4 k-point     1 on co1603
   Task     5 k-point     1 on co1603
   Task     6 k-point     1 on co1603
   Task     7 k-point     1 on co1603
   Task     8 k-point     1 on co1603
   Task     9 k-point     1 on co1603
   Task    10 k-point     1 on co1603
   Task    11 k-point     1 on co1603
   Task    12 k-point     1 on co1603
   Task    13 k-point     1 on co1603
   Task    14 k-point     1 on co1603
   Task    15 k-point     1 on co1603
   Task    16 k-point     1 on co1603
   Task    17 k-point     1 on co1603
   Task    18 k-point     1 on co1603
   Task    19 k-point     1 on co1603
   Task    20 k-point     1 on co1603
   Task    21 k-point     1 on co1603
   Task    22 k-point     1 on co1603
   Task    23 k-point     1 on co1603
   Task    24 k-point     1 on co1603
   Task    25 k-point     1 on co1603
   Task    26 k-point     1 on co1603
   Task    27 k-point     1 on co1603
   Task    28 k-point     1 on co1603
   Task    29 k-point     1 on co1603
   Task    30 k-point     1 on co1603
   Task    31 k-point     1 on co1603
   Task    32 k-point     1 on co1603
   Task    33 k-point     1 on co1603
   Task    34 k-point     1 on co1603
   Task    35 k-point     1 on co1603
   Task    36 k-point     1 on co1603
   Task    37 k-point     1 on co1603
   Task    38 k-point     1 on co1603
   Task    39 k-point     1 on co1603
  Tasks:    40 split into      8 X      5 BLACS grid
  Calculating block size based on n_basis =          312  max_nprow =            8  max_npcol =            5
  ScaLAPACK block size set to:           16
  Allocating        0.023 MB for ovlp
  Allocating        0.023 MB for ham
  Allocating        0.023 MB for eigenvec
  Required Scalapack workspace - INTEGER:            1  REAL:             1
  Partitioning the integration grid into batches with parallel hashing+maxmin method.
  | Number of batches:     2319
  | Maximal batch size:     200
  | Minimal batch size:      22
  | Average batch size:      84.526
  | Standard deviation of batch sizes:      20.927

  Integration load balanced across    40 MPI tasks.
  Work distribution over tasks is as follows:
  Task     0 has       4944 integration points.
  Task     1 has       4919 integration points.
  Task     2 has       4927 integration points.
  Task     3 has       4876 integration points.
  Task     4 has       4927 integration points.
  Task     5 has       4966 integration points.
  Task     6 has       4831 integration points.
  Task     7 has       4932 integration points.
  Task     8 has       4835 integration points.
  Task     9 has       4858 integration points.
  Task    10 has       4931 integration points.
  Task    11 has       4832 integration points.
  Task    12 has       4827 integration points.
  Task    13 has       4964 integration points.
  Task    14 has       4937 integration points.
  Task    15 has       4912 integration points.
  Task    16 has       4969 integration points.
  Task    17 has       4939 integration points.
  Task    18 has       4841 integration points.
  Task    19 has       4879 integration points.
  Task    20 has       4928 integration points.
  Task    21 has       4901 integration points.
  Task    22 has       4838 integration points.
  Task    23 has       4828 integration points.
  Task    24 has       4934 integration points.
  Task    25 has       4933 integration points.
  Task    26 has       4857 integration points.
  Task    27 has       4931 integration points.
  Task    28 has       4882 integration points.
  Task    29 has       4860 integration points.
  Task    30 has       4888 integration points.
  Task    31 has       4848 integration points.
  Task    32 has       4939 integration points.
  Task    33 has       4928 integration points.
  Task    34 has       4924 integration points.
  Task    35 has       4942 integration points.
  Task    36 has       4884 integration points.
  Task    37 has       4958 integration points.
  Task    38 has       4843 integration points.
  Task    39 has       4924 integration points.
  Initializing partition tables, free-atom densities, potentials, etc. across the integration grid (initialize_grid_storage).
  | initialize_grid_storage: Actual outermost partition radius vs. multipole_radius_free
  | (-- VB: in principle, multipole_radius_free should be larger, hence this output)
  | Species        1: Confinement radius =              6.000000000000000 AA, multipole_radius_free =              6.012827091137924 AA.
  | Species        1: outer_partition_radius set to              6.012827091137924 AA .
  | Species        2: Confinement radius =              6.000000000000000 AA, multipole_radius_free =              6.016994434057369 AA.
  | Species        2: outer_partition_radius set to              6.016994434057369 AA .
  | The sparse table of interatomic distances needs          0.71 kbyte instead of         0.51 kbyte of memory.
  | Using the partition_type stratmann_smoother will reduce your memory usage.
  | Net number of integration points:   196016
  | of which are non-zero points    :   181165
  Renormalizing the initial density to the exact electron count on the 3D integration grid.
  | Initial density: Formal number of electrons (from input files) :     128.0000000000
  | Integrated number of electrons on 3D grid     :     127.9999791451
  | Charge integration error                      :      -0.0000208549
  | Normalization factor for density and gradient :       1.0000001629
  Renormalizing the free-atom superposition density to the exact electron count on the 3D integration grid.
  | Formal number of electrons (from input files) :     128.0000000000
  | Integrated number of electrons on 3D grid     :     127.9999791451
  | Charge integration error                      :      -0.0000208549
  | Normalization factor for density and gradient :       1.0000001629
  Obtaining max. number of non-zero basis functions in each batch (get_n_compute_maxes).
  | Maximal number of non-zero basis functions:      298 in task     0
  | Maximal number of non-zero basis functions:      292 in task     1
  | Maximal number of non-zero basis functions:      299 in task     2
  | Maximal number of non-zero basis functions:      298 in task     3
  | Maximal number of non-zero basis functions:      297 in task     4
  | Maximal number of non-zero basis functions:      298 in task     5
  | Maximal number of non-zero basis functions:      302 in task     6
  | Maximal number of non-zero basis functions:      299 in task     7
  | Maximal number of non-zero basis functions:      295 in task     8
  | Maximal number of non-zero basis functions:      299 in task     9
  | Maximal number of non-zero basis functions:      301 in task    10
  | Maximal number of non-zero basis functions:      303 in task    11
  | Maximal number of non-zero basis functions:      298 in task    12
  | Maximal number of non-zero basis functions:      302 in task    13
  | Maximal number of non-zero basis functions:      303 in task    14
  | Maximal number of non-zero basis functions:      292 in task    15
  | Maximal number of non-zero basis functions:      292 in task    16
  | Maximal number of non-zero basis functions:      304 in task    17
  | Maximal number of non-zero basis functions:      302 in task    18
  | Maximal number of non-zero basis functions:      304 in task    19
  | Maximal number of non-zero basis functions:      304 in task    20
  | Maximal number of non-zero basis functions:      298 in task    21
  | Maximal number of non-zero basis functions:      292 in task    22
  | Maximal number of non-zero basis functions:      292 in task    23
  | Maximal number of non-zero basis functions:      299 in task    24
  | Maximal number of non-zero basis functions:      292 in task    25
  | Maximal number of non-zero basis functions:      304 in task    26
  | Maximal number of non-zero basis functions:      295 in task    27
  | Maximal number of non-zero basis functions:      302 in task    28
  | Maximal number of non-zero basis functions:      303 in task    29
  | Maximal number of non-zero basis functions:      304 in task    30
  | Maximal number of non-zero basis functions:      302 in task    31
  | Maximal number of non-zero basis functions:      300 in task    32
  | Maximal number of non-zero basis functions:      292 in task    33
  | Maximal number of non-zero basis functions:      302 in task    34
  | Maximal number of non-zero basis functions:      297 in task    35
  | Maximal number of non-zero basis functions:      304 in task    36
  | Maximal number of non-zero basis functions:      299 in task    37
  | Maximal number of non-zero basis functions:      303 in task    38
  | Maximal number of non-zero basis functions:      301 in task    39
  Selecting the method for density update.
  Loop over occupied states selected for charge density update.
  Allocating        0.209 MB for KS_eigenvector
  Integrating Hamiltonian matrix: batch-based integration.
  Time summed over all CPUs for integration: real work        2.412 s, elapsed        2.525 s
  Integrating overlap matrix.
  Time summed over all CPUs for integration: real work        0.893 s, elapsed        0.976 s
  Deallocating overlap matrix.

  Updating Kohn-Sham eigenvalues and eigenvectors using ELSI and the ELPA eigensolver.
  Overlap matrix is not singular
  | Lowest and highest eigenvalues :  0.4512E-03,  0.4904E+01
  Finished singularity check of overlap matrix
  | Time :     0.012 s
  Starting ELPA eigensolver
  Finished Cholesky decomposition
  | Time :     0.004 s
  Finished transformation to standard eigenproblem
  | Time :     0.002 s
  Finished solving standard eigenproblem
  | Time :     0.010 s
  Finished back-transformation of eigenvectors
  | Time :     0.000 s

  Obtaining occupation numbers and chemical potential using ELSI.
  | Chemical potential (Fermi level):    -5.59058361 eV
  Writing Kohn-Sham eigenvalues.

  State    Occupation    Eigenvalue [Ha]    Eigenvalue [eV]
      1       2.00000         -88.694347        -2413.49598
      2       2.00000         -88.694315        -2413.49511
      3       2.00000         -88.694291        -2413.49447
      4       2.00000         -88.694291        -2413.49445
      5       2.00000         -88.694291        -2413.49445
      6       2.00000         -88.694290        -2413.49442
      7       2.00000         -88.694289        -2413.49441
      8       2.00000         -88.694259        -2413.49358
      9       2.00000          -7.797491         -212.18052
     10       2.00000          -7.797445         -212.17928
     11       2.00000          -7.797442         -212.17918
     12       2.00000          -7.797427         -212.17879
     13       2.00000          -7.797413         -212.17840
     14       2.00000          -7.797393         -212.17786
     15       2.00000          -7.797379         -212.17748
     16       2.00000          -7.797361         -212.17698
     17       2.00000          -5.768663         -156.97332
     18       2.00000          -5.768617         -156.97204
     19       2.00000          -5.768594         -156.97144
     20       2.00000          -5.768502         -156.96893
     21       2.00000          -5.768497         -156.96879
     22       2.00000          -5.768391         -156.96591
     23       2.00000          -5.768365         -156.96519
     24       2.00000          -5.768319         -156.96393
     25       2.00000          -5.767550         -156.94302
     26       2.00000          -5.767509         -156.94191
     27       2.00000          -5.767492         -156.94145
     28       2.00000          -5.767448         -156.94024
     29       2.00000          -5.767436         -156.93991
     30       2.00000          -5.767397         -156.93885
     31       2.00000          -5.767377         -156.93830
     32       2.00000          -5.767360         -156.93784
     33       2.00000          -5.766480         -156.91390
     34       2.00000          -5.766446         -156.91298
     35       2.00000          -5.766422         -156.91232
     36       2.00000          -5.766421         -156.91231
     37       2.00000          -5.766420         -156.91227
     38       2.00000          -5.766418         -156.91223
     39       2.00000          -5.766418         -156.91221
     40       2.00000          -5.766386         -156.91135
     41       2.00000          -0.821685          -22.35918
     42       2.00000          -0.792873          -21.57517
     43       2.00000          -0.792624          -21.56839
     44       2.00000          -0.716527          -19.49769
     45       2.00000          -0.716234          -19.48971
     46       2.00000          -0.612773          -16.67441
     47       2.00000          -0.612601          -16.66973
     48       2.00000          -0.542788          -14.77002
     49       2.00000          -0.450026          -12.24584
     50       2.00000          -0.425352          -11.57441
     51       2.00000          -0.425331          -11.57385
     52       2.00000          -0.393361          -10.70389
     53       2.00000          -0.368329          -10.02273
     54       2.00000          -0.368300          -10.02195
     55       2.00000          -0.361967           -9.84961
     56       2.00000          -0.361843           -9.84626
     57       2.00000          -0.329814           -8.97470
     58       2.00000          -0.277806           -7.55949
     59       2.00000          -0.277787           -7.55898
     60       2.00000          -0.270335           -7.35618
     61       2.00000          -0.270220           -7.35305
     62       2.00000          -0.262629           -7.14649
     63       2.00000          -0.262617           -7.14616
     64       2.00000          -0.257145           -6.99726
     65       0.00000          -0.132435           -3.60374
     66       0.00000          -0.132271           -3.59928
     67       0.00000          -0.119981           -3.26485
     68       0.00000          -0.085876           -2.33680
     69       0.00000          -0.084860           -2.30915
     70       0.00000          -0.084753           -2.30624
     71       0.00000          -0.082690           -2.25012
     72       0.00000          -0.082504           -2.24505
     73       0.00000           0.028128            0.76541
     74       0.00000           0.049368            1.34337
     75       0.00000           0.049469            1.34611
     76       0.00000           0.064328            1.75045
     77       0.00000           0.064368            1.75154
     78       0.00000           0.079635            2.16699
     79       0.00000           0.079715            2.16916
     80       0.00000           0.091191            2.48144
     81       0.00000           0.093565            2.54604
     82       0.00000           0.093696            2.54959
     83       0.00000           0.115078            3.13143
     84       0.00000           0.117479            3.19677
     85       0.00000           0.117529            3.19811
     86       0.00000           0.122978            3.34639
     87       0.00000           0.123030            3.34782
     88       0.00000           0.141565            3.85218

  Highest occupied state (VBM) at     -6.99726106 eV
  | Occupation number:      2.00000000

  Lowest unoccupied state (CBM) at    -3.60373765 eV
  | Occupation number:      0.00000000

  Overall HOMO-LUMO gap:      3.39352340 eV.
  Calculating total energy contributions from superposition of free atom densities.

  Total energy components:
  | Sum of eigenvalues            :       -1842.64723149 Ha      -50140.98231393 eV
  | XC energy correction          :        -204.89982784 Ha       -5575.60799936 eV
  | XC potential correction       :         264.82416310 Ha        7206.23212688 eV
  | Free-atom electrostatic energy:       -1415.63345228 Ha      -38521.34618110 eV
  | Hartree energy correction     :           0.00000000 Ha           0.00000000 eV
  | vdW energy correction         :           0.00000000 Ha           0.00000000 eV
  | Entropy correction            :           0.00000000 Ha           0.00000000 eV
  | ---------------------------
  | Total energy                  :       -3198.35634852 Ha      -87031.70436751 eV
  | Total energy, T -> 0          :       -3198.35634852 Ha      -87031.70436751 eV  <-- do not rely on this value for anything but (periodic) metals
  | Electronic free energy        :       -3198.35634852 Ha      -87031.70436751 eV

  Derived energy quantities:
  | Kinetic energy                :        3210.59968711 Ha       87364.86256164 eV
  | Electrostatic energy          :       -6204.05620779 Ha     -168820.95892979 eV
  | Energy correction for multipole
  | error in Hartree potential    :           0.00000000 Ha           0.00000000 eV
  | Sum of eigenvalues per atom                           :       -6267.62278924 eV
  | Total energy (T->0) per atom                          :      -10878.96304594 eV  <-- do not rely on this value for anything but (periodic) metals
  | Electronic free energy per atom                       :      -10878.96304594 eV
  Initialize hartree_potential_storage
  Max. number of atoms included in rho_multipole:            8

  End scf initialization - timings             :  max(cpu_time)    wall_clock(cpu1)
  | Time for scf. initialization               :        0.238 s           0.241 s
  | Boundary condition initialization          :        0.000 s           0.000 s
  | Integration                                :        0.091 s           0.092 s
  | Solution of K.-S. eqns.                    :        0.031 s           0.032 s
  | Grid partitioning                          :        0.087 s           0.087 s
  | Preloading free-atom quantities on grid    :        0.020 s           0.020 s
  | Free-atom superposition energy             :        0.005 s           0.005 s
  | Total energy evaluation                    :        0.000 s           0.000 s

  Partial memory accounting:
  | Current value for overall tracked memory usage:
  |   Minimum:        0.624 MB (on task 24)
  |   Maximum:        0.653 MB (on task  0)
  |   Average:        0.639 MB
  | Peak value for overall tracked memory usage:
  |   Minimum:        2.996 MB (on task 22 after allocating wave)
  |   Maximum:        3.120 MB (on task 11 after allocating wave)
  |   Average:        3.070 MB
  | Largest tracked array allocation so far:
  |   Minimum:        0.651 MB (hamiltonian_shell on task  1)
  |   Maximum:        0.916 MB (all_coords on task 21)
  |   Average:        0.706 MB
  Note:  These values currently only include a subset of arrays which are explicitly tracked.
  The "true" memory usage will be greater.
------------------------------------------------------------
  Evaluating new KS density.
  Integration grid: deviation in total charge (<rho> - N_e) =   5.684342E-14

  Time for density update prior                :  max(cpu_time)    wall_clock(cpu1)
  | self-consistency iterative process         :        0.051 s           0.050 s

------------------------------------------------------------
          Begin self-consistency iteration #    1

  Date     :  20210927, Time     :  125126.097
------------------------------------------------------------
  Pulay mixing of updated and previous charge densities.
  Renormalizing the density to the exact electron count on the 3D integration grid.
  | Formal number of electrons (from input files) :     128.0000000000
  | Integrated number of electrons on 3D grid     :     128.0000000000
  | Charge integration error                      :       0.0000000000
  | Normalization factor for density and gradient :       1.0000000000

  Evaluating partitioned Hartree potential by multipole expansion.
  | Original multipole sum: apparent total charge =   0.110031E-12
  | Sum of charges compensated after spline to logarithmic grids =   0.192253E-06
  | Analytical far-field extrapolation by fixed multipoles:
  | Hartree multipole sum: apparent total charge =   0.110030E-12
  Summing up the Hartree potential.
  Time summed over all CPUs for potential: real work        0.862 s, elapsed        0.922 s
  | RMS charge density error from multipole expansion :   0.577724E-03

  Integrating Hamiltonian matrix: batch-based integration.
  Time summed over all CPUs for integration: real work        2.399 s, elapsed        2.568 s

  Updating Kohn-Sham eigenvalues and eigenvectors using ELSI and the ELPA eigensolver.
  Starting ELPA eigensolver
  Finished transformation to standard eigenproblem
  | Time :     0.002 s
  Finished solving standard eigenproblem
  | Time :     0.008 s
  Finished back-transformation of eigenvectors
  | Time :     0.000 s

  Obtaining occupation numbers and chemical potential using ELSI.
  | Chemical potential (Fermi level):    -5.53586592 eV
  Writing Kohn-Sham eigenvalues.

  State    Occupation    Eigenvalue [Ha]    Eigenvalue [eV]
      1       2.00000         -88.690680        -2413.39620
      2       2.00000         -88.690626        -2413.39473
      3       2.00000         -88.690626        -2413.39472
      4       2.00000         -88.690618        -2413.39450
      5       2.00000         -88.690616        -2413.39445
      6       2.00000         -88.690611        -2413.39432
      7       2.00000         -88.690597        -2413.39395
      8       2.00000         -88.690572        -2413.39326
      9       2.00000          -7.794016         -212.08597
     10       2.00000          -7.793967         -212.08464
     11       2.00000          -7.793957         -212.08437
     12       2.00000          -7.793946         -212.08406
     13       2.00000          -7.793932         -212.08369
     14       2.00000          -7.793909         -212.08306
     15       2.00000          -7.793897         -212.08274
     16       2.00000          -7.793875         -212.08214
     17       2.00000          -5.765572         -156.88921
     18       2.00000          -5.765528         -156.88801
     19       2.00000          -5.765502         -156.88730
     20       2.00000          -5.765408         -156.88474
     21       2.00000          -5.765403         -156.88461
     22       2.00000          -5.765297         -156.88171
     23       2.00000          -5.765270         -156.88099
     24       2.00000          -5.765228         -156.87983
     25       2.00000          -5.764179         -156.85129
     26       2.00000          -5.764140         -156.85024
     27       2.00000          -5.764120         -156.84967
     28       2.00000          -5.764074         -156.84844
     29       2.00000          -5.764064         -156.84815
     30       2.00000          -5.764019         -156.84695
     31       2.00000          -5.764001         -156.84644
     32       2.00000          -5.763983         -156.84595
     33       2.00000          -5.762425         -156.80356
     34       2.00000          -5.762370         -156.80208
     35       2.00000          -5.762365         -156.80192
     36       2.00000          -5.762358         -156.80174
     37       2.00000          -5.762356         -156.80170
     38       2.00000          -5.762353         -156.80159
     39       2.00000          -5.762341         -156.80128
     40       2.00000          -5.762312         -156.80048
     41       2.00000          -0.819182          -22.29108
     42       2.00000          -0.790345          -21.50637
     43       2.00000          -0.790096          -21.49961
     44       2.00000          -0.713932          -19.42707
     45       2.00000          -0.713644          -19.41924
     46       2.00000          -0.610058          -16.60054
     47       2.00000          -0.609889          -16.59593
     48       2.00000          -0.539856          -14.69023
     49       2.00000          -0.447746          -12.18380
     50       2.00000          -0.422869          -11.50686
     51       2.00000          -0.422849          -11.50631
     52       2.00000          -0.390956          -10.63845
     53       2.00000          -0.365811           -9.95423
     54       2.00000          -0.365782           -9.95343
     55       2.00000          -0.359564           -9.78425
     56       2.00000          -0.359440           -9.78087
     57       2.00000          -0.327075           -8.90016
     58       2.00000          -0.275004           -7.48324
     59       2.00000          -0.274984           -7.48268
     60       2.00000          -0.267637           -7.28278
     61       2.00000          -0.267523           -7.27967
     62       2.00000          -0.259785           -7.06911
     63       2.00000          -0.259772           -7.06875
     64       2.00000          -0.254356           -6.92138
     65       0.00000          -0.130197           -3.54285
     66       0.00000          -0.130033           -3.53839
     67       0.00000          -0.117638           -3.20109
     68       0.00000          -0.083703           -2.27768
     69       0.00000          -0.082671           -2.24959
     70       0.00000          -0.082564           -2.24667
     71       0.00000          -0.080261           -2.18402
     72       0.00000          -0.080076           -2.17897
     73       0.00000           0.030123            0.81969
     74       0.00000           0.051358            1.39751
     75       0.00000           0.051457            1.40022
     76       0.00000           0.066141            1.79979
     77       0.00000           0.066182            1.80090
     78       0.00000           0.081154            2.20832
     79       0.00000           0.081235            2.21051
     80       0.00000           0.092724            2.52316
     81       0.00000           0.095374            2.59527
     82       0.00000           0.095611            2.60171
     83       0.00000           0.117097            3.18636
     84       0.00000           0.119439            3.25009
     85       0.00000           0.119487            3.25141
     86       0.00000           0.124848            3.39728
     87       0.00000           0.124900            3.39871
     88       0.00000           0.143569            3.90672

  Highest occupied state (VBM) at     -6.92137565 eV
  | Occupation number:      2.00000000

  Lowest unoccupied state (CBM) at    -3.54284631 eV
  | Occupation number:      0.00000000

  Overall HOMO-LUMO gap:      3.37852934 eV.

  Total energy components:
  | Sum of eigenvalues            :       -1842.23854443 Ha      -50129.86137314 eV
  | XC energy correction          :        -204.92383589 Ha       -5576.26129159 eV
  | XC potential correction       :         264.85506781 Ha        7207.07308707 eV
  | Free-atom electrostatic energy:       -1415.63345228 Ha      -38521.34618110 eV
  | Hartree energy correction     :          -0.41243118 Ha         -11.22282348 eV
  | vdW energy correction         :           0.00000000 Ha           0.00000000 eV
  | Entropy correction            :           0.00000000 Ha           0.00000000 eV
  | ---------------------------
  | Total energy                  :       -3198.35319597 Ha      -87031.61858225 eV
  | Total energy, T -> 0          :       -3198.35319597 Ha      -87031.61858225 eV  <-- do not rely on this value for anything but (periodic) metals
  | Electronic free energy        :       -3198.35319597 Ha      -87031.61858225 eV

  Derived energy quantities:
  | Kinetic energy                :        3210.66893972 Ha       87366.74702086 eV
  | Electrostatic energy          :       -6204.09829980 Ha     -168822.10431152 eV
  | Energy correction for multipole
  | error in Hartree potential    :          -0.00027206 Ha          -0.00740316 eV
  | Sum of eigenvalues per atom                           :       -6266.23267164 eV
  | Total energy (T->0) per atom                          :      -10878.95232278 eV  <-- do not rely on this value for anything but (periodic) metals
  | Electronic free energy per atom                       :      -10878.95232278 eV
  Evaluating new KS density.
  Integration grid: deviation in total charge (<rho> - N_e) =   5.684342E-14

  Self-consistency convergence accuracy:
  | Change of charge density      :  0.2419E+00
  | Change of sum of eigenvalues  :  0.1112E+02 eV
  | Change of total energy        :  0.8579E-01 eV


------------------------------------------------------------
  End self-consistency iteration #     1       :  max(cpu_time)    wall_clock(cpu1)
  | Time for this iteration                    :        0.155 s           0.155 s
  | Charge density update                      :        0.049 s           0.049 s
  | Density mixing                             :        0.001 s           0.001 s
  | Hartree multipole update                   :        0.003 s           0.002 s
  | Hartree multipole summation                :        0.024 s           0.024 s
  | Integration                                :        0.066 s           0.066 s
  | Solution of K.-S. eqns.                    :        0.012 s           0.012 s
  | Total energy evaluation                    :        0.001 s           0.000 s

  Partial memory accounting:
  | Current value for overall tracked memory usage:
  |   Minimum:        0.624 MB (on task 24)
  |   Maximum:        0.653 MB (on task  0)
  |   Average:        0.639 MB
  | Peak value for overall tracked memory usage:
  |   Minimum:        2.996 MB (on task 22 after allocating wave)
  |   Maximum:        3.120 MB (on task 11 after allocating wave)
  |   Average:        3.070 MB
  | Largest tracked array allocation so far:
  |   Minimum:        1.337 MB (gradient_basis_wave on task  1)
  |   Maximum:        1.392 MB (gradient_basis_wave on task 17)
  |   Average:        1.369 MB
  Note:  These values currently only include a subset of arrays which are explicitly tracked.
  The "true" memory usage will be greater.
------------------------------------------------------------

------------------------------------------------------------
          Begin self-consistency iteration #    2

  Date     :  20210927, Time     :  125126.253
------------------------------------------------------------
  Pulay mixing of updated and previous charge densities.
  Renormalizing the density to the exact electron count on the 3D integration grid.
  | Formal number of electrons (from input files) :     128.0000000000
  | Integrated number of electrons on 3D grid     :     128.0000000000
  | Charge integration error                      :       0.0000000000
  | Normalization factor for density and gradient :       1.0000000000

  Evaluating partitioned Hartree potential by multipole expansion.
  | Original multipole sum: apparent total charge =  -0.177978E-13
  | Sum of charges compensated after spline to logarithmic grids =   0.105808E-05
  | Analytical far-field extrapolation by fixed multipoles:
  | Hartree multipole sum: apparent total charge =  -0.179727E-13
  Summing up the Hartree potential.
  Time summed over all CPUs for potential: real work        0.823 s, elapsed        0.860 s
  | RMS charge density error from multipole expansion :   0.515096E-02

  Integrating Hamiltonian matrix: batch-based integration.
  Time summed over all CPUs for integration: real work        2.349 s, elapsed        2.474 s

  Updating Kohn-Sham eigenvalues and eigenvectors using ELSI and the ELPA eigensolver.
  Starting ELPA eigensolver
  Finished transformation to standard eigenproblem
  | Time :     0.001 s
  Finished solving standard eigenproblem
  | Time :     0.008 s
  Finished back-transformation of eigenvectors
  | Time :     0.001 s

  Obtaining occupation numbers and chemical potential using ELSI.
  | Chemical potential (Fermi level):    -5.12098867 eV
  Highest occupied state (VBM) at     -6.34434362 eV
  | Occupation number:      2.00000000

  Lowest unoccupied state (CBM) at    -3.08225929 eV
  | Occupation number:      0.00000000

  Overall HOMO-LUMO gap:      3.26208432 eV.

  Checking to see if s.c.f. parameters should be adjusted.
  Kept the default occupation width. Value:   0.010000 eV.

  Total energy components:
  | Sum of eigenvalues            :       -1839.25399656 Ha      -50048.64769348 eV
  | XC energy correction          :        -205.12468940 Ha       -5581.72679363 eV
  | XC potential correction       :         265.11220178 Ha        7214.07005827 eV
  | Free-atom electrostatic energy:       -1415.63345228 Ha      -38521.34618110 eV
  | Hartree energy correction     :          -3.44376211 Ha         -93.70953477 eV
  | vdW energy correction         :           0.00000000 Ha           0.00000000 eV
  | Entropy correction            :           0.00000000 Ha           0.00000000 eV
  | ---------------------------
  | Total energy                  :       -3198.34369856 Ha      -87031.36014471 eV
  | Total energy, T -> 0          :       -3198.34369856 Ha      -87031.36014471 eV  <-- do not rely on this value for anything but (periodic) metals
  | Electronic free energy        :       -3198.34369856 Ha      -87031.36014471 eV

  Derived energy quantities:
  | Kinetic energy                :        3211.03414993 Ha       87376.68489647 eV
  | Electrostatic energy          :       -6204.25315910 Ha     -168826.31824755 eV
  | Energy correction for multipole
  | error in Hartree potential    :          -0.00255759 Ha          -0.06959560 eV
  | Sum of eigenvalues per atom                           :       -6256.08096168 eV
  | Total energy (T->0) per atom                          :      -10878.92001809 eV  <-- do not rely on this value for anything but (periodic) metals
  | Electronic free energy per atom                       :      -10878.92001809 eV
  Evaluating new KS density.
  Integration grid: deviation in total charge (<rho> - N_e) =   0.000000E+00

  Self-consistency convergence accuracy:
  | Change of charge density      :  0.2149E+00
  | Change of sum of eigenvalues  :  0.8121E+02 eV
  | Change of total energy        :  0.2584E+00 eV


------------------------------------------------------------
  End self-consistency iteration #     2       :  max(cpu_time)    wall_clock(cpu1)
  | Time for this iteration                    :        0.149 s           0.149 s
  | Charge density update                      :        0.048 s           0.048 s
  | Density mixing                             :        0.001 s           0.002 s
  | Hartree multipole update                   :        0.003 s           0.002 s
  | Hartree multipole summation                :        0.022 s           0.022 s
  | Integration                                :        0.063 s           0.064 s
  | Solution of K.-S. eqns.                    :        0.011 s           0.011 s
  | Total energy evaluation                    :        0.000 s           0.000 s

  Partial memory accounting:
  | Current value for overall tracked memory usage:
  |   Minimum:        0.625 MB (on task 24)
  |   Maximum:        0.654 MB (on task  0)
  |   Average:        0.640 MB
  | Peak value for overall tracked memory usage:
  |   Minimum:        2.996 MB (on task 22 after allocating wave)
  |   Maximum:        3.120 MB (on task 11 after allocating wave)
  |   Average:        3.070 MB
  | Largest tracked array allocation so far:
  |   Minimum:        1.337 MB (gradient_basis_wave on task  1)
  |   Maximum:        1.392 MB (gradient_basis_wave on task 17)
  |   Average:        1.369 MB
  Note:  These values currently only include a subset of arrays which are explicitly tracked.
  The "true" memory usage will be greater.
------------------------------------------------------------

------------------------------------------------------------
          Begin self-consistency iteration #    3

  Date     :  20210927, Time     :  125126.403
------------------------------------------------------------
  Pulay mixing of updated and previous charge densities.
  Renormalizing the density to the exact electron count on the 3D integration grid.
  | Formal number of electrons (from input files) :     128.0000000000
  | Integrated number of electrons on 3D grid     :     128.0000000000
  | Charge integration error                      :       0.0000000000
  | Normalization factor for density and gradient :       1.0000000000

  Evaluating partitioned Hartree potential by multipole expansion.
  | Original multipole sum: apparent total charge =   0.134224E-13
  | Sum of charges compensated after spline to logarithmic grids =   0.951559E-06
  | Analytical far-field extrapolation by fixed multipoles:
  | Hartree multipole sum: apparent total charge =   0.135301E-13
  Summing up the Hartree potential.
  Time summed over all CPUs for potential: real work        0.827 s, elapsed        0.862 s
  | RMS charge density error from multipole expansion :   0.552166E-02

  Integrating Hamiltonian matrix: batch-based integration.
  Time summed over all CPUs for integration: real work        2.350 s, elapsed        2.492 s

  Updating Kohn-Sham eigenvalues and eigenvectors using ELSI and the ELPA eigensolver.
  Starting ELPA eigensolver
  Finished transformation to standard eigenproblem
  | Time :     0.001 s
  Finished solving standard eigenproblem
  | Time :     0.008 s
  Finished back-transformation of eigenvectors
  | Time :     0.000 s

  Obtaining occupation numbers and chemical potential using ELSI.
  | Chemical potential (Fermi level):    -5.22167395 eV
  Highest occupied state (VBM) at     -6.47914140 eV
  | Occupation number:      2.00000000

  Lowest unoccupied state (CBM) at    -3.21088400 eV
  | Occupation number:      0.00000000

  Overall HOMO-LUMO gap:      3.26825740 eV.

  Total energy components:
  | Sum of eigenvalues            :       -1840.52884280 Ha      -50083.33802484 eV
  | XC energy correction          :        -205.05031527 Ha       -5579.70297066 eV
  | XC potential correction       :         265.01411331 Ha        7211.40093522 eV
  | Free-atom electrostatic energy:       -1415.63345228 Ha      -38521.34618110 eV
  | Hartree energy correction     :          -2.14472500 Ha         -58.36093655 eV
  | vdW energy correction         :           0.00000000 Ha           0.00000000 eV
  | Entropy correction            :           0.00000000 Ha           0.00000000 eV
  | ---------------------------
  | Total energy                  :       -3198.34322204 Ha      -87031.34717792 eV
  | Total energy, T -> 0          :       -3198.34322204 Ha      -87031.34717792 eV  <-- do not rely on this value for anything but (periodic) metals
  | Electronic free energy        :       -3198.34322204 Ha      -87031.34717792 eV

  Derived energy quantities:
  | Kinetic energy                :        3210.19342561 Ha       87353.80762356 eV
  | Electrostatic energy          :       -6203.48633238 Ha     -168805.45183082 eV
  | Energy correction for multipole
  | error in Hartree potential    :          -0.00312075 Ha          -0.08492003 eV
  | Sum of eigenvalues per atom                           :       -6260.41725310 eV
  | Total energy (T->0) per atom                          :      -10878.91839724 eV  <-- do not rely on this value for anything but (periodic) metals
  | Electronic free energy per atom                       :      -10878.91839724 eV
  Evaluating new KS density.
  Integration grid: deviation in total charge (<rho> - N_e) =   0.000000E+00

  Self-consistency convergence accuracy:
  | Change of charge density      :  0.2698E-01
  | Change of sum of eigenvalues  : -0.3469E+02 eV
  | Change of total energy        :  0.1297E-01 eV


------------------------------------------------------------
  End self-consistency iteration #     3       :  max(cpu_time)    wall_clock(cpu1)
[...]
     56       2.00000          -0.345168           -9.39251
     57       2.00000          -0.310347           -8.44497
     58       2.00000          -0.258208           -7.02619
     59       2.00000          -0.258181           -7.02545
     60       2.00000          -0.251411           -6.84125
     61       2.00000          -0.251300           -6.83823
     62       2.00000          -0.242529           -6.59954
     63       2.00000          -0.242508           -6.59898
     64       2.00000          -0.237531           -6.46354
     65       0.00000          -0.117226           -3.18988
     66       0.00000          -0.117060           -3.18536
     67       0.00000          -0.103893           -2.82707
     68       0.00000          -0.071333           -1.94106
     69       0.00000          -0.069838           -1.90039
     70       0.00000          -0.069727           -1.89738
     71       0.00000          -0.065956           -1.79475
     72       0.00000          -0.065772           -1.78973
     73       0.00000           0.042703            1.16200
     74       0.00000           0.063487            1.72757
     75       0.00000           0.063583            1.73019
     76       0.00000           0.077397            2.10608
     77       0.00000           0.077442            2.10731
     78       0.00000           0.090285            2.45679
     79       0.00000           0.090366            2.45899
     80       0.00000           0.101929            2.77363
     81       0.00000           0.106007            2.88459
     82       0.00000           0.108110            2.94183
     83       0.00000           0.129698            3.52927
     84       0.00000           0.131304            3.57297
     85       0.00000           0.131347            3.57414
     86       0.00000           0.136296            3.70879
     87       0.00000           0.136348            3.71022
     88       0.00000           0.155566            4.23317

  Highest occupied state (VBM) at     -6.46353629 eV
  | Occupation number:      2.00000000

  Lowest unoccupied state (CBM) at    -3.18987645 eV
  | Occupation number:      0.00000000

  Overall HOMO-LUMO gap:      3.27365984 eV.
  | Chemical Potential                          :    -5.20938962 eV

  Self-consistency cycle converged.


------------------------------------------------------------
  End self-consistency iteration #    12       :  max(cpu_time)    wall_clock(cpu1)
  | Time for this iteration                    :        0.438 s           0.438 s
  | Charge density & force component update    :        0.242 s           0.242 s
  | Density mixing                             :        0.003 s           0.003 s
  | Hartree multipole update                   :        0.002 s           0.002 s
  | Hartree multipole summation                :        0.069 s           0.070 s
  | Hartree pot. SCF incomplete forces         :        0.047 s           0.047 s
  | Integration                                :        0.063 s           0.063 s
  | Solution of K.-S. eqns.                    :        0.009 s           0.009 s
  | Total energy evaluation                    :        0.000 s           0.001 s

  Partial memory accounting:
  | Current value for overall tracked memory usage:
  |   Minimum:        0.628 MB (on task 24)
  |   Maximum:        0.658 MB (on task  0)
  |   Average:        0.643 MB
  | Peak value for overall tracked memory usage:
  |   Minimum:        5.566 MB (on task 22 after allocating hessian_basis_wave)
  |   Maximum:        5.761 MB (on task 17 after allocating hessian_basis_wave)
  |   Average:        5.683 MB
  | Largest tracked array allocation so far:
  |   Minimum:        2.673 MB (hessian_basis_wave on task  1)
  |   Maximum:        2.783 MB (hessian_basis_wave on task 17)
  |   Average:        2.738 MB
  Note:  These values currently only include a subset of arrays which are explicitly tracked.
  The "true" memory usage will be greater.
------------------------------------------------------------
  Obtaining max. number of non-zero basis functions in each batch .
  Evaluating KS electron density on previously omitted grid points.

  Entering Libmbd.
  Libmbd: VdW method: mbd-nl
  Libmbd: Evaluating kinetic energy density...

  Evaluating density matrix
  Finished density matrix calculation
  | Time :     0.001 s

  Libmbd: Performing Hirshfeld analysis...
  Libmbd: Calculating MBD energy...
  Libmbd: Evaluated energy: -0.10400759972927887E-001

  Leaving Libmbd.


  Total energy components:
  | Sum of eigenvalues            :       -1840.39792022 Ha      -50079.77543998 eV
  | XC energy correction          :        -205.05888792 Ha       -5579.93624446 eV
  | XC potential correction       :         265.02521053 Ha        7211.70290589 eV
  | Free-atom electrostatic energy:       -1415.63345228 Ha      -38521.34618110 eV
  | Hartree energy correction     :          -2.27815455 Ha         -61.99173929 eV
  | vdW energy correction         :          -0.01040076 Ha          -0.28301908 eV
  | Entropy correction            :           0.00000000 Ha           0.00000000 eV
  | ---------------------------
  | Total energy                  :       -3198.35360520 Ha      -87031.62971802 eV
  | Total energy, T -> 0          :       -3198.35360520 Ha      -87031.62971802 eV  <-- do not rely on this value for anything but (periodic) metals
  | Electronic free energy        :       -3198.35360520 Ha      -87031.62971802 eV

  Derived energy quantities:
  | Kinetic energy                :        3210.27932465 Ha       87356.14505550 eV
  | Electrostatic energy          :       -6203.56364117 Ha     -168807.55550997 eV
  | Energy correction for multipole
  | error in Hartree potential    :          -0.00320358 Ha          -0.08717383 eV
  | Sum of eigenvalues per atom                           :       -6259.97193000 eV
  | Total energy (T->0) per atom                          :      -10878.95371475 eV  <-- do not rely on this value for anything but (periodic) metals
  | Electronic free energy per atom                       :      -10878.95371475 eV

  atomic forces [eV/Ang]:
  -----------------------
  atom #    1
   Hellmann-Feynman              :  0.155426E+02 -0.822169E+01  0.286199E+02
   Ionic forces                  :  0.000000E+00  0.000000E+00  0.000000E+00
   Multipole                     :  0.401551E-01 -0.126741E-01 -0.569079E-01
   Hartree pot. SCF incomplete   : -0.106253E-03  0.558069E-04 -0.281265E-03
   Pulay + GGA                   : -0.155603E+02  0.823186E+01 -0.285561E+02
   Van der Waals                 : -0.171799E-01  0.728653E-02 -0.345059E-02
   ----------------------------------------------------------------
   Total forces(   1)            :  0.511713E-02  0.483814E-02  0.319099E-02
  atom #    2
   Hellmann-Feynman              :  0.236753E+02  0.822838E+01 -0.223786E+02
   Ionic forces                  :  0.000000E+00  0.000000E+00  0.000000E+00
   Multipole                     :  0.205117E-01  0.127473E-01  0.666395E-01
   Hartree pot. SCF incomplete   : -0.183942E-03 -0.568338E-04  0.215415E-03
   Pulay + GGA                   : -0.236783E+02 -0.823418E+01  0.223145E+02
   Van der Waals                 : -0.174455E-01 -0.728111E-02 -0.205799E-02
   ----------------------------------------------------------------
   Total forces(   2)            : -0.132448E-03 -0.393949E-03  0.714867E-03
  atom #    3
   Hellmann-Feynman              :  0.407395E+01  0.198602E+02  0.267882E+02
   Ionic forces                  :  0.000000E+00  0.000000E+00  0.000000E+00
   Multipole                     :  0.224860E-01  0.306066E-01 -0.597315E-01
   Hartree pot. SCF incomplete   : -0.151234E-04 -0.147934E-03 -0.255306E-03
   Pulay + GGA                   : -0.408897E+01 -0.198740E+02 -0.267265E+02
   Van der Waals                 : -0.706230E-02 -0.175465E-01 -0.183584E-02
   ----------------------------------------------------------------
   Total forces(   3)            :  0.388637E-03 -0.851686E-03 -0.144924E-03
  atom #    4
   Hellmann-Feynman              : -0.407244E+01  0.198587E+02 -0.267920E+02
   Ionic forces                  :  0.000000E+00  0.000000E+00  0.000000E+00
   Multipole                     : -0.225083E-01  0.306511E-01  0.597544E-01
   Hartree pot. SCF incomplete   :  0.200098E-04 -0.149059E-03  0.254682E-03
   Pulay + GGA                   :  0.408705E+01 -0.198712E+02  0.267297E+02
   Van der Waals                 :  0.706772E-02 -0.175372E-01  0.183567E-02
   ----------------------------------------------------------------
   Total forces(   4)            : -0.814804E-03  0.477345E-03 -0.496447E-03
  atom #    5
   Hellmann-Feynman              : -0.155436E+02 -0.825804E+01 -0.285784E+02
   Ionic forces                  :  0.000000E+00  0.000000E+00  0.000000E+00
   Multipole                     : -0.397873E-01 -0.127391E-01  0.569417E-01
   Hartree pot. SCF incomplete   :  0.108494E-03  0.551512E-04  0.270812E-03
   Pulay + GGA                   :  0.155722E+02  0.826179E+01  0.285240E+02
   Van der Waals                 :  0.172093E-01  0.727260E-02  0.345222E-02
   ----------------------------------------------------------------
   Total forces(   5)            :  0.609412E-02 -0.166314E-02  0.625393E-02
  atom #    6
   Hellmann-Feynman              : -0.122555E+02 -0.198439E+02  0.242226E+02
   Ionic forces                  :  0.000000E+00  0.000000E+00  0.000000E+00
   Multipole                     : -0.290922E-02 -0.309262E-01 -0.638785E-01
   Hartree pot. SCF incomplete   :  0.947773E-04  0.148719E-03 -0.243465E-03
   Pulay + GGA                   :  0.122226E+02  0.198604E+02 -0.241552E+02
   Van der Waals                 :  0.726872E-02  0.175486E-01  0.437728E-03
   ----------------------------------------------------------------
   Total forces(   6)            : -0.284853E-01  0.324713E-02  0.365871E-02
  atom #    7
   Hellmann-Feynman              :  0.122484E+02 -0.198674E+02 -0.242226E+02
   Ionic forces                  :  0.000000E+00  0.000000E+00  0.000000E+00
   Multipole                     :  0.265842E-02 -0.308675E-01  0.640366E-01
   Hartree pot. SCF incomplete   : -0.927694E-04  0.146042E-03  0.224562E-03
   Pulay + GGA                   : -0.122269E+02  0.198787E+02  0.241475E+02
   Van der Waals                 : -0.730384E-02  0.175407E-01 -0.441318E-03
   ----------------------------------------------------------------
   Total forces(   7)            :  0.167763E-01 -0.184423E-02 -0.113126E-01
  atom #    8
   Hellmann-Feynman              : -0.236713E+02  0.822602E+01  0.223858E+02
   Ionic forces                  :  0.000000E+00  0.000000E+00  0.000000E+00
   Multipole                     : -0.205732E-01  0.127553E-01 -0.665842E-01
   Hartree pot. SCF incomplete   :  0.182902E-03 -0.615552E-04 -0.218286E-03
   Pulay + GGA                   :  0.236753E+02 -0.823533E+01 -0.223230E+02
   Van der Waals                 :  0.174458E-01 -0.728372E-02  0.206011E-02
   ----------------------------------------------------------------
   Total forces(   8)            :  0.105233E-02 -0.389483E-02 -0.185535E-02

  Timings for VdW correction (Tkatchenko-Scheffler 2009 or later):
  | CPU time:        0.137 s, Wall clock time:        0.138 s.
  Removing unitary transformations (pure translations, rotations) from forces on atoms.
  Atomic forces before filtering:
  | Net force on center of mass :  -0.411077E-05 -0.852171E-04  0.920460E-05 eV/A
  | Net torque on center of mass:  -0.689892E-05 -0.207897E-03 -0.463310E-05 eV
  Atomic forces after filtering:
  | Net force on center of mass :  -0.365872E-17 -0.696899E-18  0.174225E-17 eV/A
  | Net torque on center of mass:   0.396442E-17  0.737566E-18 -0.116167E-16 eV

  Energy and forces in a compact form:
  | Total energy uncorrected      :         -0.870316297180217E+05 eV
  | Total energy corrected        :         -0.870316297180217E+05 eV  <-- do not rely on this value for anything but (periodic) metals
  | Electronic free energy        :         -0.870316297180217E+05 eV
  Total atomic forces (unitary forces cleaned) [eV/Ang]:
  |    1          0.512474473142069E-02          0.484881074618566E-02          0.317186707350132E-02
  |    2         -0.133190696421679E-03         -0.382978707740565E-03          0.694974461043130E-03
  |    3          0.394150642718935E-03         -0.841111948151115E-03         -0.152396398946624E-03
  |    4         -0.819835768761118E-03          0.488075314145038E-03         -0.490000064445431E-03
  |    5          0.608776440953323E-02         -0.165250703814067E-02          0.627023729557740E-02
  |    6         -0.284817017027722E-01          0.325756778050107E-02          0.366516177859195E-02
  |    7          0.167741935431126E-01         -0.183335944829350E-02         -0.113226121604224E-01
  |    8          0.105387484116957E-02         -0.388449669850592E-02         -0.183723198489931E-02

  ------------------------------------ 
  Start decomposition of the XC Energy 
  ------------------------------------ 
  X and C from original XC functional choice 
  Hartree-Fock Energy :          0.000000000 Ha              0.000000000 eV
  X Energy            :       -200.055493724 Ha          -5443.786961060 eV
  C Energy            :         -5.003394201 Ha           -136.149283404 eV
  Total XC Energy     :       -205.058887925 Ha          -5579.936244464 eV
  ------------------------------------ 
  LDA X and C from self-consistent density 
  X Energy LDA        :       -185.466925847 Ha          -5046.811831245 eV
  C Energy LDA        :         -9.954571763 Ha           -270.877679788 eV
  ------------------------------------ 
  End decomposition of the XC Energy 
  ------------------------------------ 

------------------------------------------------------------

------------------------------------------------------------------------------
  Final output of selected total energy values:

  The following output summarizes some interesting total energy values
  at the end of a run (AFTER all relaxation, molecular dynamics, etc.).

  | Total energy of the DFT / Hartree-Fock s.c.f. calculation      :         -87031.629718022 eV
  | Final zero-broadening corrected energy (caution - metals only) :         -87031.629718022 eV
  | For reference only, the value of 1 Hartree used in FHI-aims is :             27.211384500 eV

  Before relying on these values, please be sure to understand exactly which
  total energy value is referred to by a given number. Different objects may
  all carry the same name 'total energy'. Definitions:

  Total energy of the DFT / Hartree-Fock s.c.f. calculation:
  | Note that this energy does not include ANY quantities calculated after the
  | s.c.f. cycle, in particular not ANY RPA, MP2, etc. many-body perturbation terms.

  Final zero-broadening corrected energy:
  | For metallic systems only, a broadening of the occupation numbers at the Fermi
  | level can be extrapolated back to zero broadening by an electron-gas inspired
  | formula. For all systems that are not real metals, this value can be
  | meaningless and should be avoided.

------------------------------------------------------------------------------
  Methods described in the following list of references were used in this FHI-aims run.
  If you publish the results, please make sure to cite these reference if they apply.
  FHI-aims is an academic code, and for our developers (often, Ph.D. students
  and postdocs), scientific credit in the community is essential.
  Thank you for helping us!

  For any use of FHI-aims, please cite:

    Volker Blum, Ralf Gehrke, Felix Hanke, Paula Havu, Ville Havu,
    Xinguo Ren, Karsten Reuter, and Matthias Scheffler
    'Ab initio molecular simulations with numeric atom-centered orbitals'
    Computer Physics Communications 180, 2175-2196 (2009)
    http://dx.doi.org/10.1016/j.cpc.2009.06.022


  The ELSI infrastructure was used in your run to solve the Kohn-Sham electronic structure.
  Please check out http://elsi-interchange.org to learn more.
  If scalability is important for your project, please acknowledge ELSI by citing:

    V. W-z. Yu, F. Corsetti, A. Garcia, W. P. Huhn, M. Jacquelin, W. Jia,
    B. Lange, L. Lin, J. Lu, W. Mi, A. Seifitokaldani, A. Vazquez-Mayagoitia,
    C. Yang, H. Yang, and V. Blum
    'ELSI: A unified software interface for Kohn-Sham electronic structure solvers'
    Computer Physics Communications 222, 267-285 (2018).
    http://dx.doi.org/10.1016/j.cpc.2017.09.007


  For the real-space grid partitioning and parallelization used in this calculation, please cite:

    Ville Havu, Volker Blum, Paula Havu, and Matthias Scheffler,
    'Efficient O(N) integration for all-electron electronic structure calculation'
    'using numerically tabulated basis functions'
    Journal of Computational Physics 228, 8367-8379 (2009).
    http://dx.doi.org/10.1016/j.jcp.2009.08.008

  Of course, there are many other important community references, e.g., those cited in the
  above references. Our list is limited to references that describe implementations in the
  FHI-aims code. The reason is purely practical (length of this list) - please credit others as well.

------------------------------------------------------------
          Leaving FHI-aims.
          Date     :  20210927, Time     :  125128.334

          Computational steps:
          | Number of self-consistency cycles          :           12
          | Number of SCF (re)initializations          :            1

          Detailed time accounting                     :  max(cpu_time)    wall_clock(cpu1)
          | Total time                                 :        3.026 s           3.034 s
          | Preparation time                           :        0.443 s           0.443 s
          | Boundary condition initalization           :        0.000 s           0.000 s
          | Grid partitioning                          :        0.087 s           0.087 s
          | Preloading free-atom quantities on grid    :        0.020 s           0.020 s
          | Free-atom superposition energy             :        0.005 s           0.005 s
          | Total time for integrations                :        0.853 s           0.854 s
          | Total time for solution of K.-S. equations :        0.153 s           0.153 s
          | Total time for density & force components  :        0.822 s           0.821 s
          | Total time for mixing                      :        0.023 s           0.023 s
          | Total time for Hartree multipole update    :        0.030 s           0.027 s
          | Total time for Hartree multipole sum       :        0.314 s           0.318 s
          | Total time for total energy evaluation     :        0.004 s           0.004 s
          | Total time NSC force correction            :        0.047 s           0.047 s
          | Total time for scaled ZORA corrections     :        0.000 s           0.000 s
          | Total time for vdW correction              :        0.137 s           0.138 s

          Partial memory accounting:
          | Residual value for overall tracked memory usage across tasks:     0.000000 MB (should be 0.000000 MB)
          | Peak values for overall tracked memory usage:
          |   Minimum:        5.566 MB (on task 22 after allocating hessian_basis_wave)
          |   Maximum:        5.761 MB (on task 17 after allocating hessian_basis_wave)
          |   Average:        5.683 MB
          | Largest tracked array allocation:
          |   Minimum:        2.673 MB (hessian_basis_wave on task  1)
          |   Maximum:        2.783 MB (hessian_basis_wave on task 17)
          |   Average:        2.738 MB
          Note:  These values currently only include a subset of arrays which are explicitly tracked.
          The "true" memory usage will be greater.

          Have a nice day.
------------------------------------------------------------
