------------------------------------------------------------
          Invoking FHI-aims ...

          When using FHI-aims, please cite the following reference:

            Volker Blum, Ralf Gehrke, Felix Hanke, Paula Havu,
            Ville Havu, Xinguo Ren, Karsten Reuter, and Matthias Scheffler,
            'Ab Initio Molecular Simulations with Numeric Atom-Centered Orbitals',
            Computer Physics Communications 180, 2175-2196 (2009)

          In addition, many other developments in FHI-aims are likely important for
          your particular application. A partial list of references is given at the end of
          this file. Thank you for giving credit to the authors of these developments.

          For any questions about FHI-aims, please visit our slack channel at

            https://fhi-aims.slack.com

          and our main development and support site at

            https://aims-git.rz-berlin.mpg.de .

          The latter site, in particular, has a wiki to collect information, as well
          as an issue tracker to log discussions, suggest improvements, and report issues
          or bugs. https://aims-git.rz-berlin.mpg.de is also the main development site
          of the project and all new and updated code versions can be obtained there.
          Please send an email to aims-coordinators@fhi-berlin.mpg.de and we will add
          you to these sites. They are for you and everyone is welcome there.

------------------------------------------------------------



  Date     :  20211123, Time     :  120651.996
  Time zero on CPU 1             :   0.183829000000000E+00  s.
  Internal wall clock time zero  :           406901211.996  s.

  FHI-aims created a unique identifier for this run for later identification
  aims_uuid : 791CC908-DC2F-41FE-A849-0C56C9BA1DE4

  Build configuration of the current instance of FHI-aims
  -------------------------------------------------------
  FHI-aims version      : 210513
  Commit number         : 1a2d0b161
  CMake host system     : Linux-4.12.14-122.63-default
  CMake version         : 3.5.2
  Fortran compiler      : /mpcdf/soft/SLE_12/packages/x86_64/intel_parallel_studio/2020.1/compilers_and_libraries_2020.1.217/linux/mpi/intel64/bin/mpiifort (Intel) version 19.1.0.20200306
  Fortran compiler flags: -O3 -ip -fp-model precise
  C compiler            : /mpcdf/soft/SLE_12/packages/x86_64/intel/19.1.1/bin/icc (Intel) version 19.1.0.20200306
  C compiler flags      : -O3 -ip -fp-model precise -std=gnu99
  C++ compiler          : /mpcdf/soft/SLE_12/packages/x86_64/intel/19.1.1/bin/icpc (Intel) version 19.1.0.20200306
  C++ compiler flags    : -O3 -ip -fp-model precise -std=gnu99
  Using MPI
  Using ScaLAPACK
  Using LibXC
  Using i-PI
  Using RLSY
  Linking against: /mpcdf/soft/SLE_12/packages/x86_64/intel_parallel_studio/2020.1/mkl/lib/intel64/libmkl_intel_lp64.so
                   /mpcdf/soft/SLE_12/packages/x86_64/intel_parallel_studio/2020.1/mkl/lib/intel64/libmkl_sequential.so
                   /mpcdf/soft/SLE_12/packages/x86_64/intel_parallel_studio/2020.1/mkl/lib/intel64/libmkl_core.so
                   /mpcdf/soft/SLE_12/packages/x86_64/intel_parallel_studio/2020.1/mkl/lib/intel64/libmkl_blacs_intelmpi_lp64.so
                   /mpcdf/soft/SLE_12/packages/x86_64/intel_parallel_studio/2020.1/mkl/lib/intel64/libmkl_scalapack_lp64.so

  Using      160 parallel tasks.
  Task        0 on host co1484 reporting.
  Task        1 on host co1484 reporting.
  Task        2 on host co1484 reporting.
  Task        3 on host co1484 reporting.
  Task        4 on host co1484 reporting.
  Task        5 on host co1484 reporting.
  Task        6 on host co1484 reporting.
  Task        7 on host co1484 reporting.
  Task        8 on host co1484 reporting.
  Task        9 on host co1484 reporting.
  Task       10 on host co1484 reporting.
  Task       11 on host co1484 reporting.
  Task       12 on host co1484 reporting.
  Task       13 on host co1484 reporting.
  Task       14 on host co1484 reporting.
  Task       15 on host co1484 reporting.
  Task       16 on host co1484 reporting.
  Task       17 on host co1484 reporting.
  Task       18 on host co1484 reporting.
  Task       19 on host co1484 reporting.
  Task       20 on host co1484 reporting.
  Task       21 on host co1484 reporting.
  Task       22 on host co1484 reporting.
  Task       23 on host co1484 reporting.
  Task       24 on host co1484 reporting.
  Task       25 on host co1484 reporting.
  Task       26 on host co1484 reporting.
  Task       27 on host co1484 reporting.
  Task       28 on host co1484 reporting.
  Task       29 on host co1484 reporting.
  Task       30 on host co1484 reporting.
  Task       31 on host co1484 reporting.
  Task       32 on host co1484 reporting.
  Task       33 on host co1484 reporting.
  Task       34 on host co1484 reporting.
  Task       35 on host co1484 reporting.
  Task       36 on host co1484 reporting.
  Task       37 on host co1484 reporting.
  Task       38 on host co1484 reporting.
  Task       39 on host co1484 reporting.
  Task       40 on host co1485 reporting.
  Task       41 on host co1485 reporting.
  Task       42 on host co1485 reporting.
  Task       43 on host co1485 reporting.
  Task       44 on host co1485 reporting.
  Task       45 on host co1485 reporting.
  Task       46 on host co1485 reporting.
  Task       47 on host co1485 reporting.
  Task       48 on host co1485 reporting.
  Task       49 on host co1485 reporting.
  Task       50 on host co1485 reporting.
  Task       51 on host co1485 reporting.
  Task       52 on host co1485 reporting.
  Task       53 on host co1485 reporting.
  Task       54 on host co1485 reporting.
  Task       55 on host co1485 reporting.
  Task       56 on host co1485 reporting.
  Task       57 on host co1485 reporting.
  Task       58 on host co1485 reporting.
  Task       59 on host co1485 reporting.
  Task       60 on host co1485 reporting.
  Task       61 on host co1485 reporting.
  Task       62 on host co1485 reporting.
  Task       63 on host co1485 reporting.
  Task       64 on host co1485 reporting.
  Task       65 on host co1485 reporting.
  Task       66 on host co1485 reporting.
  Task       67 on host co1485 reporting.
  Task       68 on host co1485 reporting.
  Task       69 on host co1485 reporting.
  Task       70 on host co1485 reporting.
  Task       71 on host co1485 reporting.
  Task       72 on host co1485 reporting.
  Task       73 on host co1485 reporting.
  Task       74 on host co1485 reporting.
  Task       75 on host co1485 reporting.
  Task       76 on host co1485 reporting.
  Task       77 on host co1485 reporting.
  Task       78 on host co1485 reporting.
  Task       79 on host co1485 reporting.
  Task       80 on host co1486 reporting.
  Task       81 on host co1486 reporting.
  Task       82 on host co1486 reporting.
  Task       83 on host co1486 reporting.
  Task       84 on host co1486 reporting.
  Task       85 on host co1486 reporting.
  Task       86 on host co1486 reporting.
  Task       87 on host co1486 reporting.
  Task       88 on host co1486 reporting.
  Task       89 on host co1486 reporting.
  Task       90 on host co1486 reporting.
  Task       91 on host co1486 reporting.
  Task       92 on host co1486 reporting.
  Task       93 on host co1486 reporting.
  Task       94 on host co1486 reporting.
  Task       95 on host co1486 reporting.
  Task       96 on host co1486 reporting.
  Task       97 on host co1486 reporting.
  Task       98 on host co1486 reporting.
  Task       99 on host co1486 reporting.
  Task      100 on host co1486 reporting.
  Task      101 on host co1486 reporting.
  Task      102 on host co1486 reporting.
  Task      103 on host co1486 reporting.
  Task      104 on host co1486 reporting.
  Task      105 on host co1486 reporting.
  Task      106 on host co1486 reporting.
  Task      107 on host co1486 reporting.
  Task      108 on host co1486 reporting.
  Task      109 on host co1486 reporting.
  Task      110 on host co1486 reporting.
  Task      111 on host co1486 reporting.
  Task      112 on host co1486 reporting.
  Task      113 on host co1486 reporting.
  Task      114 on host co1486 reporting.
  Task      115 on host co1486 reporting.
  Task      116 on host co1486 reporting.
  Task      117 on host co1486 reporting.
  Task      118 on host co1486 reporting.
  Task      119 on host co1486 reporting.
  Task      120 on host co1487 reporting.
  Task      121 on host co1487 reporting.
  Task      122 on host co1487 reporting.
  Task      123 on host co1487 reporting.
  Task      124 on host co1487 reporting.
  Task      125 on host co1487 reporting.
  Task      126 on host co1487 reporting.
  Task      127 on host co1487 reporting.
  Task      128 on host co1487 reporting.
  Task      129 on host co1487 reporting.
  Task      130 on host co1487 reporting.
  Task      131 on host co1487 reporting.
  Task      132 on host co1487 reporting.
  Task      133 on host co1487 reporting.
  Task      134 on host co1487 reporting.
  Task      135 on host co1487 reporting.
  Task      136 on host co1487 reporting.
  Task      137 on host co1487 reporting.
  Task      138 on host co1487 reporting.
  Task      139 on host co1487 reporting.
  Task      140 on host co1487 reporting.
  Task      141 on host co1487 reporting.
  Task      142 on host co1487 reporting.
  Task      143 on host co1487 reporting.
  Task      144 on host co1487 reporting.
  Task      145 on host co1487 reporting.
  Task      146 on host co1487 reporting.
  Task      147 on host co1487 reporting.
  Task      148 on host co1487 reporting.
  Task      149 on host co1487 reporting.
  Task      150 on host co1487 reporting.
  Task      151 on host co1487 reporting.
  Task      152 on host co1487 reporting.
  Task      153 on host co1487 reporting.
  Task      154 on host co1487 reporting.
  Task      155 on host co1487 reporting.
  Task      156 on host co1487 reporting.
  Task      157 on host co1487 reporting.
  Task      158 on host co1487 reporting.
  Task      159 on host co1487 reporting.

  Performing system and environment tests:
  | Environment variable OMP_NUM_THREADS correctly set to 1.
  | Checking for ScaLAPACK...
  | Testing pdtran()...
  | All pdtran() tests passed.

  Obtaining array dimensions for all initial allocations:
  
  -----------------------------------------------------------------------
  Parsing control.in (first pass over file, find array dimensions only).
  The contents of control.in will be repeated verbatim below
  unless switched off by setting 'verbatim_writeout .false.' .
  in the first line of control.in .
  -----------------------------------------------------------------------
  
  ##### Physical settings  ################
  xc                 hse06  0.5
  hybrid_xc_coeff 0.5
  hse_unit A
  relativistic       atomic_zora scalar
  #elsi_restart read
  # SCF settings
  relax_geometry trm 1E-3
  #relax_unit_cell #full
  use_symmetric_forces .true.
  #vdw_correction_hirshfeld
  occupation_type gaussian       0.01
  # k-grid settings  (to be adjusted)
  k_grid  4 4 1
  empty_states 8
  use_dipole_correction
  include_spin_orbit non_self_consistent
  
  mixer   pulay
  n_max_pulay        12 # high for metal
  charge_mix_param   0.1 #low for metal
  many_body_dispersion_nl    beta=0.81
  ################################################################################
  #
  #  FHI-aims code project
  # Volker Blum, Fritz Haber Institute Berlin, 2009
  #
  #  Suggested "intermediate" defaults for Mo atom (to be pasted into control.in file)
  #
  #  See https://aaltodoc.aalto.fi/handle/123456789/33620 for the report these
  #  setting are based on
  ################################################################################
    species        Mo
  #     global species definitions
      nucleus             42
      mass                95.94
  #
      l_hartree           6
  #
      cut_pot             4.0  2.0  1.0
      basis_dep_cutoff    1e-4
  #
      radial_base         59 7.0
      radial_multiplier   2
      angular_grids specified
        division   0.3117   50
        division   0.6750  110
        division   1.0351  194
        division   1.2073  302
        division   1.6402  434
  #      division   1.9185  590
  #      division   2.0237  770
  #      division   2.0980  974
  #      division   2.7972 1202
  #      outer_grid  974
        outer_grid  434
  ################################################################################
  #
  #  Definition of "minimal" basis
  #
  ################################################################################
  #     valence basis states
      valence      5  s   1.
      valence      4  p   6.
      valence      4  d   5.
  #     ion occupancy
      ion_occ     5  s   0.
      ion_occ     4  p   6.
      ion_occ     4  d   4.
  ################################################################################
  #
  #  Suggested additional basis functions. For production calculations,
  #  uncomment them one after another (the most important basis functions are
  #  listed first).
  #
  #  Constructed for dimers: 1.675 A, 1.9 A, 2.375 A, 3.00 A, 4.00 A
  #
  ################################################################################
  #  "First tier"  - max. impr. -711.23  meV, min. impr. -21.07 meV
       hydro 4 f 8.4
       hydro 3 d 2.8
       ionic 5 p auto
       for_aux hydro 5 g 12
       ionic 5 s auto
  #  "Second tier" - max. impr. -39.38  meV, min. impr. -2.68 meV
  #     hydro 4 f 12.4
  #     hydro 3 d 3.3
  #     hydro 6 h 17.2
  #     hydro 4 f 7.6
  #     hydro 3 p 3.0
  #     hydro 1 s 0.65
  #  "Third tier"  - max. impr. -5.50 meV, min. impr. -0.47 meV
  #     hydro 4 f 29.2
  #     hydro 5 g 11.2
  #     hydro 3 d 6.8
  #     hydro 6 h 14.8
  #     hydro 2 p 2.3
  #     hydro 4 s 3.8
  #  "Fourth tier"  - max. impr. -0.58 meV, min. impr. -0.19 meV
  #     hydro 5 f 6.8
  #     hydro 5 d 14.8
  #     hydro 6 s 7.8
  #     hydro 5 g 20.8
  #     hydro 5 d 10.4
  #     hydro 5 p 9.8
  #  Further functions - -0.17 meV and below
  #     hydro 5 d 3.2
  ################################################################################
  #
  #  FHI-aims code project
  #  Volker Blum, 2018
  #
  #  Suggested "intermediate" defaults for S atom (to be pasted into control.in file)
  #
  ################################################################################
    species        S
  #     global species definitions
      nucleus             16
      mass                32.065
  #
      l_hartree           6
  #
      cut_pot             4.0          2.0  1.0
      basis_dep_cutoff    1e-4
  #
      radial_base         44 7.0
      radial_multiplier   2
      angular_grids       specified
        division   0.4665  110
        division   0.5810  194
        division   0.7139  302
        division   0.8274  434
  #      division   0.9105  590
  #      division   1.0975  770
  #      division   1.2028  974
  #      outer_grid  974
        outer_grid  434
  ################################################################################
  #
  #  Definition of "minimal" basis
  #
  ################################################################################
  #     valence basis states
      valence      3  s   2.
      valence      3  p   4.
  #     ion occupancy
      ion_occ      3  s   1.
      ion_occ      3  p   3.
  ################################################################################
  #
  #  Suggested additional basis functions. For production calculations,
  #  uncomment them one after another (the most important basis functions are
  #  listed first).
  #
  #  Constructed for dimers: 1.6 A, 1.9 A, 2.5 A, 3.25 A, 4.0 A
  #
  ################################################################################
  #  "First tier" - improvements: -652.81 meV to -45.53 meV
       ionic 3 d auto
       hydro 2 p 1.8
       hydro 4 f 7
       ionic 3 s auto
  #  "Second tier" - improvements: -30.20 meV to -1.74 meV
  #     hydro 4 d 6.2
  for_aux     hydro 5 g 10.8
  #     hydro 4 p 4.9
  #     hydro 5 f 10
  #     hydro 1 s 0.8
  #  "Third tier" - improvements: -1.04 meV to -0.20 meV
  #     hydro 3 d 3.9
  #     hydro 3 d 2.7
  #     hydro 5 g 12
  #     hydro 4 p 10.4
  #     hydro 5 f 12.4
  #     hydro 2 s 1.9
  #  "Fourth tier" - improvements: -0.35 meV to -0.06 meV
  #     hydro 4 d 10.4
  #     hydro 4 p 7.2
  #     hydro 4 d 10
  #     hydro 5 g 19.2
  #     hydro 4 s 12
  
  ################################################################################
  #
  #  FHI-aims code project
  #  Volker Blum, 2018
  #
  #  Suggested "intermediate" defaults for Se atom (to be pasted into control.in file)
  #
  #  For elements 31-35 (Ga-Br), the "intermediate" defaults are currently identical to the "tight"
  #  defaults and are provided for consistency only. In these cases, I believe that the current
  #  "tight" settings cannot be reduced in a simple way.
  #
  ################################################################################
    species        Se
  #     global species definitions
      nucleus             34
      mass                78.96
  #
      l_hartree           6
  #
      cut_pot             4.0          2.0  1.0
      basis_dep_cutoff    1e-4
  #
      radial_base         55 7.0
      radial_multiplier   2
      angular_grids       specified
        division   0.0830  110
        division   0.1357  194
        division   0.7377  302
        division   0.8610  434
  #      division   0.9640  590
  #      division   1.0773  770
  #      division   2.5539  974
  #      outer_grid  974
        outer_grid  434
  ################################################################################
  #
  #  Definition of "minimal" basis
  #
  ################################################################################
  #     valence basis states
      valence      4  s   2.
      valence      4  p   4.
      valence      3  d  10.
  #     ion occupancy
      ion_occ      4  s   1.
      ion_occ      4  p   3.
      ion_occ      3  d  10.
  ################################################################################
  #
  #  Suggested additional basis functions. For production calculations,
  #  uncomment them one after another (the most important basis functions are
  #  listed first).
  #
  #  Constructed for dimers: 1.85 A, 2.15 A, 2.50 A, 3.00 A, 4.00 A
  #
  ################################################################################
  #  "First tier" - improvements: -336.21 meV to -36.85 meV
       hydro 3 d 4.3
       hydro 2 p 1.6
       hydro 4 f 7.2
       ionic 4 s auto
  #  "Second tier" - improvements: -14.39 meV to -1.49 meV
  #     hydro 5 g 10.4
  #     hydro 4 p 4.5
  #     hydro 4 d 6.2
  #     hydro 4 f 11.2
  #     hydro 1 s 0.65
  #     hydro 6 h 15.2
  #  "Third tier" - improvements: -0.46 meV and below
  #     hydro 5 g 14.4
  #     ionic 4 d auto
  #     hydro 4 f 22.4
  #     hydro 5 f 7.4
  #     hydro 5 p 8
  #     hydro 5 s 9.4
  #  "Fourth tier" - improvements: -0.12 meV and below
  #     hydro 5 d 11.6
  #     hydro 6 h 18
  #     hydro 4 p 4
  #     hydro 5 f 16
  #     hydro 4 s 3.9
  
  ################################################################################
  #
  #  FHI-aims code project
  #  Volker Blum, Maria Dragoumi, Sebastian Kokott 2020
  #
  #  Suggested "intermediate" defaults for W atom (to be pasted into control.in file)
  #
  ################################################################################
    species          W
  #     global species definitions
      nucleus        74
      mass           183.84
  #
      l_hartree      6
  #
      cut_pot        4.0  2.0  1.0
      basis_dep_cutoff    1e-4
  #
      radial_base    71  7.0
      radial_multiplier  2
      angular_grids specified
        division   0.2901   50
        division   0.6986  110
        division   1.0528  194
        division   1.2659  302
        division   1.5223  434
  #      division   1.8111  590
  #      division   2.0105  770
  #      division   2.0413  974
  #      division   2.8804 1202
  #      outer_grid  974
        outer_grid  434
  ################################################################################
  #
  #  Definition of "minimal" basis
  #
  ################################################################################
  #     valence basis states
      valence      6  s   2.
      valence      5  p   6.
      valence      5  d   4.
      valence      4  f  14.
  #     ion occupancy
      ion_occ      6  s   1.
      ion_occ      5  p   6.
      ion_occ      5  d   3.
      ion_occ      4  f  14.
  ################################################################################
  #
  #  Suggested additional basis functions. For production calculations,
  #  uncomment them one after another (the most important basis functions are
  #  listed first).
  #
  #  Constructed for dimers: 1.775, 1.99, 2.50, 3.25, 4.50 AA
  #
  ################################################################################
  #
  #  "First tier" - improvements: -603.77 meV to -28.99 meV
       hydro 4 f 7.8
       hydro 4 d 5.8
       ionic 6 p auto
    for_aux   hydro 5 g 12.4
       ionic 6 s auto
  #  "Second tier" - improvements: -28.30 meV to -1.31 meV
  #     hydro 6 h 16.8
  #     ionic 5 d auto
  #     hydro 4 f 8.6
  #     hydro 5 g 16.8
  #     hydro 5 d 8.4
  #     hydro 3 p 3.3
  #     hydro 1 s 0.55
  #  "Third tier" - max. impr. -1.79 meV, min. impr. -0.26 meV
  #     hydro 5 f 10.8
  #     hydro 5 g 34.4
  #     hydro 6 h 20.8
  #     hydro 5 g 12.8
  #     hydro 2 p 1.6
  #     hydro 4 s 4.7
  #     hydro 6 d 18.4
  #  "Fourth tier" -0.46 max. impr. - meV, min. impr. -0.09 meV
  #     hydro 6 h 21.6
  #     hydro 5 f 22.4
  #     hydro 4 f 4
  #     hydro 5 p 9.6
  #     hydro 6 d 17.2
  #     hydro 3 p 5.2
  #     hydro 5 g 4.7
  #     hydro 6 s 7.6
  
  -----------------------------------------------------------------------
  Completed first pass over input file control.in .
  -----------------------------------------------------------------------
  
  
  -----------------------------------------------------------------------
  Parsing geometry.in (first pass over file, find array dimensions only).
  The contents of geometry.in will be repeated verbatim below
  unless switched off by setting 'verbatim_writeout .false.' .
  in the first line of geometry.in .
  -----------------------------------------------------------------------
  
  #
  # This is the geometry file that corresponds to the current relaxation step.
  # If you do not want this file to be written, set the "write_restart_geometry" flag to .false.
  #  aims_uuid : 67CAA8E2-7FF9-42FD-A329-A5EC69F40F4F
  #
  lattice_vector     15.90000000      0.00000000      0.00000000
  lattice_vector     -7.95000000     13.76980392      0.00000000
  lattice_vector      0.00000000      0.00000000    100.00000000
  atom       0.00004233      0.92614010      2.60880708 W
  atom       1.59001256      1.87171251      4.16225498 S
  atom       1.59001891      1.83586203      1.03000800 S
  atom      -1.58000936      3.68845484      2.60873507 W
  atom       0.04843426      4.67164745      4.13664484 S
  atom      -0.01431268      4.60733467      0.99774261 S
  atom      -3.16066056      6.42627957      2.60872881 W
  atom      -1.49498140      7.34499004      4.13665321 S
  atom      -1.58206733      7.32280333      0.99772216 S
  atom      -4.76293848      9.17585572      2.60880851 W
  atom      -3.14902632     10.07996675      4.16226961 S
  atom      -3.18007258     10.09789478      1.02997913 S
  atom      -6.36001036     11.93382767      2.60878171 W
  atom      -4.76757278     12.85320020      4.17658004 S
  atom      -4.76672267     12.85370621      1.04151605 S
  atom       3.17997737      0.92611859      2.60882116 W
  atom       4.75765324      1.85159138      4.18521347 S
  atom       4.77651878      1.84136026      1.04723959 S
  atom       1.58998287      3.70494391      2.56985876 W
  atom       3.13156544      4.67161279      4.13666338 S
  atom       3.19431440      4.60730877      0.99773730 S
  atom       0.06570989      6.46388055      2.52218870 W
  atom       1.59000766      7.34389733      0.90508860 S
  atom      -1.56139281      9.16338292      2.56984335 W
  atom       0.04656723     10.01506278      4.13663779 S
  atom       0.02223941     10.10157110      0.99768177 S
  atom      -3.17294935     11.92969883      2.60880379 W
  atom      -1.58263879     12.83332923      4.18518479 S
  atom      -1.58208158     12.85478830      1.04723730 S
  atom       6.35848466      0.91712258      2.62549732 W
  atom       7.94566044      1.83347190      4.20053070 S
  atom       7.95194377      1.83711079      1.06163779 S
  atom       4.76002239      3.68848254      2.60875127 W
  atom       6.34213312      4.60024576      4.18944878 S
  atom       6.36431034      4.58743585      1.04986165 S
  atom       3.11428510      6.46381837      2.52220226 W
  atom       4.67500289      7.34497394      4.13665317 S
  atom       4.76206531      7.32275703      0.99772592 S
  atom       1.58996725      9.10405184      2.52214535 W
  atom       3.13341175     10.01506595      4.13662304 S
  atom       3.15777836     10.10156640      0.99769690 S
  atom       0.00933532     11.91691928      2.60871284 W
  atom       1.58999517     12.83121141      4.18942254 S
  atom       1.58999770     12.85681608      1.04983385 S
  atom       9.53999341      0.91423138      2.63070280 W
  atom      11.13435775      1.83345337      4.20053102 S
  atom      11.12806529      1.83708810      1.06162945 S
  atom       7.94676140      3.67386341      2.63071918 W
  atom       9.54002742      4.59495507      4.20054066 S
  atom       9.54002118      4.58768866      1.06163703 S
  atom       6.34070401      6.42629944      2.60874613 W
  atom       7.93032412      7.34678031      4.18521116 S
  atom       7.94861200      7.33555645      1.04723706 S
  atom       4.74136851      9.16335974      2.56983773 W
  atom       6.32899783     10.07998366      4.16224115 S
  atom       6.36006137     10.09790001      1.02999582 S
  atom       3.17064437     11.91692440      2.60871687 W
  atom       4.76261384     12.83331625      4.18519208 S
  atom       4.76205541     12.85477867      1.04722199 S
  atom      12.72150914      0.91711280      2.62549017 W
  atom      14.32232179      1.85157166      4.18520425 S
  atom      14.30346146      1.84133694      1.04722872 S
  atom      11.13328950      3.67381287      2.63070982 W
  atom      12.73787338      4.60024795      4.18943840 S
  atom      12.71569577      4.58743608      1.04985460 S
  atom       9.54000545      6.42765671      2.62549983 W
  atom      11.14972353      7.34678087      4.18519381 S
  atom      11.13141879      7.33555486      1.04724450 S
  atom       7.94288037      9.17584065      2.60880964 W
  atom       9.53998830     10.09505611      4.17658658 S
  atom       9.53998406     10.09406826      1.04150694 S
  atom       6.35295998     11.92973978      2.60880564 W
  atom       7.94756887     12.85321407      4.17659324 S
  atom       7.94671080     12.85370733      1.04149883 S
  #
  # What follows is the current estimated Hessian matrix constructed by the BFGS algorithm.
  # This is NOT the true Hessian matrix of the system.
  # If you do not want this information here, switch it off using the "hessian_to_restart_geometry" keyword.
  #
  
  -----------------------------------------------------------------------
  Completed first pass over input file geometry.in .
  -----------------------------------------------------------------------
  

  Basic array size parameters:
  | Number of species                 :        4
  | Number of atoms                   :       74
  | Number of lattice vectors         :        3
  | Max. basis fn. angular momentum   :        4
  | Max. atomic/ionic basis occupied n:        6
  | Max. number of basis fn. types    :        3
  | Max. radial fns per species/type  :       14
  | Max. logarithmic grid size        :     1483
  | Max. radial integration grid size :      143
  | Max. angular integration grid size:      434
  | Max. angular grid division number :        8
  | Radial grid for Hartree potential :     1483
  | Number of spin channels           :        1

------------------------------------------------------------
          Reading file control.in.
------------------------------------------------------------

  XC: Using HSE-functional with OMEGA =  0.500000E+00 <units>.
  XC: For the actual units (bohr^-1 or Angstrom^-1), see below.
  hybrid_xc_coeff: Mixing coefficient for hybrid-functional exact exchange modified to         0.50000000 .
  * WARNING: This change modifies the chosen exchange-correlation functional (keyword 'xc')
  * from its literature definition. Be sure to NEVER include such a line in any default control.in files!
  hse_unit: Unit for the HSE06 hybrid functional screening parameter set to A^(-1).
  Scalar relativistic treatment of kinetic energy: on-site free-atom approximation to ZORA.
  Geometry relaxation: Modified BFGS - TRM (trust radius method) for lattice optimization.
  Convergence accuracy for geometry relaxation: Maximum force <   0.100000E-02 eV/A.
  Occupation type: Gaussian broadening, width =   0.100000E-01 eV.
  Found k-point grid:         4         4         1
  Number of empty states per atom:        8
  Using dipole correction.
  Calculating non-self-consistent second-variational spin-orbit coupling after scf-cycle
  Using pulay charge density mixing.
  Pulay mixing - number of memorized iterations:   12
  Charge density mixing - mixing parameter:     0.1000
  Using libMBD for calculating MBD and TS energies
 
  Reading configuration options for species Mo                  .
  | Found nuclear charge :  42.0000
  | Found atomic mass :    95.9400000000000      amu
  | Found l_max for Hartree potential  :   6
  | Found cutoff potl. onset [A], width [A], scale factor :    4.00000    2.00000    1.00000
  | Threshold for basis-dependent cutoff potential is   0.100000E-03
  | Found data for basic radial integration grid :    59 points, outermost radius =    7.000 A
  | Found multiplier for basic radial grid :   2
  | Found angular grid specification: user-specified.
  | Specified grid contains     6 separate shells.
  | Check grid settings after all constraints further below.
  | Found free-atom valence shell :  5 s   1.000
  | Found free-atom valence shell :  4 p   6.000
  | Found free-atom valence shell :  4 d   5.000
  | Found free-ion valence shell :  5 s   0.000
  | Found free-ion valence shell :  4 p   6.000
  | Found free-ion valence shell :  4 d   4.000
  | Found hydrogenic basis function :  4 f   8.400
  | Found hydrogenic basis function :  3 d   2.800
  | Found ionic basis function :  5 p , default cutoff radius.
  | Found hydrogenic extended basis function :  5 g  12.000
  | Found ionic basis function :  5 s , default cutoff radius.
  Species Mo                  : Missing cutoff potential type.
  Defaulting to exp(1/x)/(1-x)^2 type cutoff potential.
  Species Mo: No 'logarithmic' tag. Using default grid for free atom:
  | Default logarithmic grid data [bohr] : 0.1000E-03 0.1000E+03 0.1012E+01
  | Will include ionic basis functions of  2.0-fold positive Mo                   ion.
  Species Mo: On-site basis accuracy parameter (for Gram-Schmidt orthonormalisation) not specified.
  Using default value basis_acc =  0.1000000E-03.
  Species Mo                  : Using default innermost maximum threshold i_radial=  2 for radial functions.
  Species Mo                  : Default cutoff onset for free atom density etc. : 0.40000000E+01 AA.
  Species Mo                  : Basic radial grid will be enhanced according to radial_multiplier =   2, to contain   119 grid points.
 
  Reading configuration options for species S                   .
  | Found nuclear charge :  16.0000
  | Found atomic mass :    32.0650000000000      amu
  | Found l_max for Hartree potential  :   6
  | Found cutoff potl. onset [A], width [A], scale factor :    4.00000    2.00000    1.00000
  | Threshold for basis-dependent cutoff potential is   0.100000E-03
  | Found data for basic radial integration grid :    44 points, outermost radius =    7.000 A
  | Found multiplier for basic radial grid :   2
  | Found angular grid specification: user-specified.
  | Specified grid contains     5 separate shells.
  | Check grid settings after all constraints further below.
  | Found free-atom valence shell :  3 s   2.000
  | Found free-atom valence shell :  3 p   4.000
  | Found free-ion valence shell :  3 s   1.000
  | Found free-ion valence shell :  3 p   3.000
  | Found ionic basis function :  3 d , default cutoff radius.
  | Found hydrogenic basis function :  2 p   1.800
  | Found hydrogenic basis function :  4 f   7.000
  | Found ionic basis function :  3 s , default cutoff radius.
  | Found hydrogenic extended basis function :  5 g  10.800
  Species S                   : Missing cutoff potential type.
  Defaulting to exp(1/x)/(1-x)^2 type cutoff potential.
  Species S : No 'logarithmic' tag. Using default grid for free atom:
  | Default logarithmic grid data [bohr] : 0.1000E-03 0.1000E+03 0.1012E+01
  | Will include ionic basis functions of  2.0-fold positive S                    ion.
  Species S : On-site basis accuracy parameter (for Gram-Schmidt orthonormalisation) not specified.
  Using default value basis_acc =  0.1000000E-03.
  Species S                   : Using default innermost maximum threshold i_radial=  2 for radial functions.
  Species S                   : Default cutoff onset for free atom density etc. : 0.40000000E+01 AA.
  Species S                   : Basic radial grid will be enhanced according to radial_multiplier =   2, to contain    89 grid points.
 
  Reading configuration options for species Se                  .
  | Found nuclear charge :  34.0000
  | Found atomic mass :    78.9600000000000      amu
  | Found l_max for Hartree potential  :   6
  | Found cutoff potl. onset [A], width [A], scale factor :    4.00000    2.00000    1.00000
  | Threshold for basis-dependent cutoff potential is   0.100000E-03
  | Found data for basic radial integration grid :    55 points, outermost radius =    7.000 A
  | Found multiplier for basic radial grid :   2
  | Found angular grid specification: user-specified.
  | Specified grid contains     5 separate shells.
  | Check grid settings after all constraints further below.
  | Found free-atom valence shell :  4 s   2.000
  | Found free-atom valence shell :  4 p   4.000
  | Found free-atom valence shell :  3 d  10.000
  | Found free-ion valence shell :  4 s   1.000
  | Found free-ion valence shell :  4 p   3.000
  | Found free-ion valence shell :  3 d  10.000
  | Found hydrogenic basis function :  3 d   4.300
  | Found hydrogenic basis function :  2 p   1.600
  | Found hydrogenic basis function :  4 f   7.200
  | Found ionic basis function :  4 s , default cutoff radius.
  Species Se                  : Missing cutoff potential type.
  Defaulting to exp(1/x)/(1-x)^2 type cutoff potential.
  Species Se: No 'logarithmic' tag. Using default grid for free atom:
  | Default logarithmic grid data [bohr] : 0.1000E-03 0.1000E+03 0.1012E+01
  | Will include ionic basis functions of  2.0-fold positive Se                   ion.
  Species Se: On-site basis accuracy parameter (for Gram-Schmidt orthonormalisation) not specified.
  Using default value basis_acc =  0.1000000E-03.
  Species Se                  : Using default innermost maximum threshold i_radial=  2 for radial functions.
  Species Se                  : Default cutoff onset for free atom density etc. : 0.40000000E+01 AA.
  Species Se                  : Basic radial grid will be enhanced according to radial_multiplier =   2, to contain   111 grid points.
 
  Reading configuration options for species W                   .
  | Found nuclear charge :  74.0000
  | Found atomic mass :    183.840000000000      amu
  | Found l_max for Hartree potential  :   6
  | Found cutoff potl. onset [A], width [A], scale factor :    4.00000    2.00000    1.00000
  | Threshold for basis-dependent cutoff potential is   0.100000E-03
  | Found data for basic radial integration grid :    71 points, outermost radius =    7.000 A
  | Found multiplier for basic radial grid :   2
  | Found angular grid specification: user-specified.
  | Specified grid contains     6 separate shells.
  | Check grid settings after all constraints further below.
  | Found free-atom valence shell :  6 s   2.000
  | Found free-atom valence shell :  5 p   6.000
  | Found free-atom valence shell :  5 d   4.000
  | Found free-atom valence shell :  4 f  14.000
  | Found free-ion valence shell :  6 s   1.000
  | Found free-ion valence shell :  5 p   6.000
  | Found free-ion valence shell :  5 d   3.000
  | Found free-ion valence shell :  4 f  14.000
  | Found hydrogenic basis function :  4 f   7.800
  | Found hydrogenic basis function :  4 d   5.800
  | Found ionic basis function :  6 p , default cutoff radius.
  | Found hydrogenic extended basis function :  5 g  12.400
  | Found ionic basis function :  6 s , default cutoff radius.
  Species W                   : Missing cutoff potential type.
  Defaulting to exp(1/x)/(1-x)^2 type cutoff potential.
  Species W : No 'logarithmic' tag. Using default grid for free atom:
  | Default logarithmic grid data [bohr] : 0.1000E-03 0.1000E+03 0.1012E+01
  | Will include ionic basis functions of  2.0-fold positive W                    ion.
  Species W : On-site basis accuracy parameter (for Gram-Schmidt orthonormalisation) not specified.
  Using default value basis_acc =  0.1000000E-03.
  Species W                   : Using default innermost maximum threshold i_radial=  2 for radial functions.
  Species W                   : Default cutoff onset for free atom density etc. : 0.40000000E+01 AA.
  Species W                   : Basic radial grid will be enhanced according to radial_multiplier =   2, to contain   143 grid points.
 
  Finished reading input file 'control.in'.
 
------------------------------------------------------------


------------------------------------------------------------
          Reading geometry description geometry.in.
------------------------------------------------------------
  | The smallest distance between any two atoms is         2.39017279 AA.
  | The first atom of this pair is atom number                     23 .
  | The second atom of this pair is atom number                    22 .
  | Wigner-Seitz cell of the first atom image           0     1     0 .
  | (The Wigner-Seitz cell of the second atom is 0 0 0  by definition.)

  Symmetry information by spglib:
  | Precision set to  0.1E-04
  | Number of Operations  : 1
  | Space group           : 1
  | International         : P1
  | Schoenflies           : C1^1
  Input structure read successfully.
  The structure contains       74 atoms,  and a total of       2634.000 electrons.

  Input geometry:
  | Unit cell:
  |       15.90000000        0.00000000        0.00000000
  |       -7.95000000       13.76980392        0.00000000
  |        0.00000000        0.00000000      100.00000000
  | Atomic structure:
  |       Atom                x [A]            y [A]            z [A]
  |    1: Species W             0.00004233        0.92614010        2.60880708
  |    2: Species S             1.59001256        1.87171251        4.16225498
  |    3: Species S             1.59001891        1.83586203        1.03000800
  |    4: Species W            -1.58000936        3.68845484        2.60873507
  |    5: Species S             0.04843426        4.67164745        4.13664484
  |    6: Species S            -0.01431268        4.60733467        0.99774261
  |    7: Species W            -3.16066056        6.42627957        2.60872881
  |    8: Species S            -1.49498140        7.34499004        4.13665321
  |    9: Species S            -1.58206733        7.32280333        0.99772216
  |   10: Species W            -4.76293848        9.17585572        2.60880851
  |   11: Species S            -3.14902632       10.07996675        4.16226961
  |   12: Species S            -3.18007258       10.09789478        1.02997913
  |   13: Species W            -6.36001036       11.93382767        2.60878171
  |   14: Species S            -4.76757278       12.85320020        4.17658004
  |   15: Species S            -4.76672267       12.85370621        1.04151605
  |   16: Species W             3.17997737        0.92611859        2.60882116
  |   17: Species S             4.75765324        1.85159138        4.18521347
  |   18: Species S             4.77651878        1.84136026        1.04723959
  |   19: Species W             1.58998287        3.70494391        2.56985876
  |   20: Species S             3.13156544        4.67161279        4.13666338
  |   21: Species S             3.19431440        4.60730877        0.99773730
  |   22: Species W             0.06570989        6.46388055        2.52218870
  |   23: Species S             1.59000766        7.34389733        0.90508860
  |   24: Species W            -1.56139281        9.16338292        2.56984335
  |   25: Species S             0.04656723       10.01506278        4.13663779
  |   26: Species S             0.02223941       10.10157110        0.99768177
  |   27: Species W            -3.17294935       11.92969883        2.60880379
  |   28: Species S            -1.58263879       12.83332923        4.18518479
  |   29: Species S            -1.58208158       12.85478830        1.04723730
  |   30: Species W             6.35848466        0.91712258        2.62549732
  |   31: Species S             7.94566044        1.83347190        4.20053070
  |   32: Species S             7.95194377        1.83711079        1.06163779
  |   33: Species W             4.76002239        3.68848254        2.60875127
  |   34: Species S             6.34213312        4.60024576        4.18944878
  |   35: Species S             6.36431034        4.58743585        1.04986165
  |   36: Species W             3.11428510        6.46381837        2.52220226
  |   37: Species S             4.67500289        7.34497394        4.13665317
  |   38: Species S             4.76206531        7.32275703        0.99772592
  |   39: Species W             1.58996725        9.10405184        2.52214535
  |   40: Species S             3.13341175       10.01506595        4.13662304
  |   41: Species S             3.15777836       10.10156640        0.99769690
  |   42: Species W             0.00933532       11.91691928        2.60871284
  |   43: Species S             1.58999517       12.83121141        4.18942254
  |   44: Species S             1.58999770       12.85681608        1.04983385
  |   45: Species W             9.53999341        0.91423138        2.63070280
  |   46: Species S            11.13435775        1.83345337        4.20053102
  |   47: Species S            11.12806529        1.83708810        1.06162945
  |   48: Species W             7.94676140        3.67386341        2.63071918
  |   49: Species S             9.54002742        4.59495507        4.20054066
  |   50: Species S             9.54002118        4.58768866        1.06163703
  |   51: Species W             6.34070401        6.42629944        2.60874613
  |   52: Species S             7.93032412        7.34678031        4.18521116
  |   53: Species S             7.94861200        7.33555645        1.04723706
  |   54: Species W             4.74136851        9.16335974        2.56983773
  |   55: Species S             6.32899783       10.07998366        4.16224115
  |   56: Species S             6.36006137       10.09790001        1.02999582
  |   57: Species W             3.17064437       11.91692440        2.60871687
  |   58: Species S             4.76261384       12.83331625        4.18519208
  |   59: Species S             4.76205541       12.85477867        1.04722199
  |   60: Species W            12.72150914        0.91711280        2.62549017
  |   61: Species S            14.32232179        1.85157166        4.18520425
  |   62: Species S            14.30346146        1.84133694        1.04722872
  |   63: Species W            11.13328950        3.67381287        2.63070982
  |   64: Species S            12.73787338        4.60024795        4.18943840
  |   65: Species S            12.71569577        4.58743608        1.04985460
  |   66: Species W             9.54000545        6.42765671        2.62549983
  |   67: Species S            11.14972353        7.34678087        4.18519381
  |   68: Species S            11.13141879        7.33555486        1.04724450
  |   69: Species W             7.94288037        9.17584065        2.60880964
  |   70: Species S             9.53998830       10.09505611        4.17658658
  |   71: Species S             9.53998406       10.09406826        1.04150694
  |   72: Species W             6.35295998       11.92973978        2.60880564
  |   73: Species S             7.94756887       12.85321407        4.17659324
  |   74: Species S             7.94671080       12.85370733        1.04149883

  Lattice parameters for 3D lattice (in Angstroms) :    15.900000   15.900000  100.000000
  Angle(s) between unit vectors (in degrees)       :    90.000000   90.000000  120.000000


  Quantities derived from the lattice vectors:
  | Reciprocal lattice vector 1:  0.395169  0.228151  0.000000
  | Reciprocal lattice vector 2: -0.000000  0.456302  0.000000
  | Reciprocal lattice vector 3:  0.000000  0.000000  0.062832
  | Unit cell volume                               :   0.218940E+05  A^3

  Fractional coordinates:
                         L1                L2                L3
       atom_frac         0.03363205        0.06725877        0.02608807  W
       atom_frac         0.16796517        0.13592877        0.04162255  S
       atom_frac         0.16666380        0.13332521        0.01030008  S
       atom_frac         0.03456107        0.26786546        0.02608735  W
       atom_frac         0.17267995        0.33926754        0.04136645  S
       atom_frac         0.16639832        0.33459697        0.00997743  S
       atom_frac         0.03456312        0.46669362        0.02608729  W
       atom_frac         0.17268243        0.53341283        0.04136653  S
       atom_frac         0.16639969        0.53180157        0.00997722  S
       atom_frac         0.03363172        0.66637519        0.02608809  W
       atom_frac         0.16796511        0.73203415        0.04162270  S
       atom_frac         0.16666350        0.73333613        0.01029979  S
       atom_frac         0.03333259        0.86666649        0.02608782  W
       atom_frac         0.16686955        0.93343379        0.04176580  S
       atom_frac         0.16694139        0.93347053        0.01041516  S
       atom_frac         0.23362718        0.06725721        0.02608821  W
       atom_frac         0.36645723        0.13446752        0.04185213  S
       atom_frac         0.36727224        0.13372451        0.01047240  S
       atom_frac         0.23453039        0.26906294        0.02569859  W
       atom_frac         0.36658631        0.33926502        0.04136663  S
       atom_frac         0.36819782        0.33459509        0.00997737  S
       atom_frac         0.23884485        0.46942430        0.02522189  W
       atom_frac         0.36666722        0.53333347        0.00905089  S
       atom_frac         0.23453389        0.66546938        0.02569843  W
       atom_frac         0.36658908        0.72732065        0.04136638  S
       atom_frac         0.36820026        0.73360312        0.00997682  S
       atom_frac         0.23362676        0.86636665        0.02608804  W
       atom_frac         0.36645832        0.93199070        0.04185185  S
       atom_frac         0.36727257        0.93354912        0.01047237  S
       atom_frac         0.43320664        0.06660390        0.02625497  W
       atom_frac         0.56630289        0.13315163        0.04200531  S
       atom_frac         0.56683020        0.13341590        0.01061638  S
       atom_frac         0.43330621        0.26786747        0.02608751  W
       atom_frac         0.56591737        0.33408215        0.04189449  S
       atom_frac         0.56684702        0.33315186        0.01049862  S
       atom_frac         0.43057688        0.46941978        0.02522202  W
       atom_frac         0.56073117        0.53341166        0.04136653  S
       atom_frac         0.56540007        0.53179821        0.00997726  S
       atom_frac         0.43057824        0.66116060        0.02522145  W
       atom_frac         0.56073036        0.72732088        0.04136623  S
       atom_frac         0.56540380        0.73360278        0.00997697  S
       atom_frac         0.43330641        0.86543856        0.02608713  W
       atom_frac         0.56591815        0.93183690        0.04189423  S
       atom_frac         0.56684805        0.93369638        0.01049834  S
       atom_frac         0.63319655        0.06639393        0.02630703  W
       atom_frac         0.76684922        0.13315029        0.04200531  S
       atom_frac         0.76658545        0.13341425        0.01061629  S
       atom_frac         0.63319921        0.26680579        0.02630719  W
       atom_frac         0.76685069        0.33369793        0.04200541  S
       atom_frac         0.76658644        0.33317022        0.01061637  S
       atom_frac         0.63213394        0.46669506        0.02608746  W
       atom_frac         0.76553394        0.53354284        0.04185211  S
       atom_frac         0.76627657        0.53272773        0.01047237  S
       atom_frac         0.63093313        0.66546770        0.02569838  W
       atom_frac         0.76406787        0.73203538        0.04162241  S
       atom_frac         0.76667212        0.73333651        0.01029996  S
       atom_frac         0.63213106        0.86543893        0.02608717  W
       atom_frac         0.76553034        0.93198976        0.04185192  S
       atom_frac         0.76627455        0.93354842        0.01047222  S
       atom_frac         0.83339651        0.06660319        0.02625490  W
       atom_frac         0.96800800        0.13446609        0.04185204  S
       atom_frac         0.96645018        0.13372281        0.01047229  S
       atom_frac         0.83360795        0.26680212        0.02630710  W
       atom_frac         0.96816527        0.33408231        0.04189438  S
       atom_frac         0.96630523        0.33315188        0.01049855  S
       atom_frac         0.83339716        0.46679363        0.02625500  W
       atom_frac         0.96801191        0.53354288        0.04185194  S
       atom_frac         0.96645304        0.53272762        0.01047244  S
       atom_frac         0.83273927        0.66637410        0.02608810  W
       atom_frac         0.96656426        0.73312998        0.04176587  S
       atom_frac         0.96652812        0.73305824        0.01041507  S
       atom_frac         0.83274204        0.86636962        0.02608806  W
       atom_frac         0.96656450        0.93343479        0.04176593  S
       atom_frac         0.96652844        0.93347061        0.01041499  S

 
  Finished reading input file 'control.in'.
 

------------------------------------------------------------
          Reading geometry description geometry.in.
------------------------------------------------------------
 
  Consistency checks for stacksize environment parameter are next.
 
  | Maximum stacksize for task 0: unlimited
  | Maximum stacksize for task 1: unlimited
  | Maximum stacksize for task 2: unlimited
  | Maximum stacksize for task 3: unlimited
  | Maximum stacksize for task 4: unlimited
  | Maximum stacksize for task 5: unlimited
  | Maximum stacksize for task 6: unlimited
  | Maximum stacksize for task 7: unlimited
  | Maximum stacksize for task 8: unlimited
  | Maximum stacksize for task 9: unlimited
  | Maximum stacksize for task 10: unlimited
  | Maximum stacksize for task 11: unlimited
  | Maximum stacksize for task 12: unlimited
  | Maximum stacksize for task 13: unlimited
  | Maximum stacksize for task 14: unlimited
  | Maximum stacksize for task 15: unlimited
  | Maximum stacksize for task 16: unlimited
  | Maximum stacksize for task 17: unlimited
  | Maximum stacksize for task 18: unlimited
  | Maximum stacksize for task 19: unlimited
  | Maximum stacksize for task 20: unlimited
  | Maximum stacksize for task 21: unlimited
  | Maximum stacksize for task 22: unlimited
  | Maximum stacksize for task 23: unlimited
  | Maximum stacksize for task 24: unlimited
  | Maximum stacksize for task 25: unlimited
  | Maximum stacksize for task 26: unlimited
  | Maximum stacksize for task 27: unlimited
  | Maximum stacksize for task 28: unlimited
  | Maximum stacksize for task 29: unlimited
  | Maximum stacksize for task 30: unlimited
  | Maximum stacksize for task 31: unlimited
  | Maximum stacksize for task 32: unlimited
  | Maximum stacksize for task 33: unlimited
  | Maximum stacksize for task 34: unlimited
  | Maximum stacksize for task 35: unlimited
  | Maximum stacksize for task 36: unlimited
  | Maximum stacksize for task 37: unlimited
  | Maximum stacksize for task 38: unlimited
  | Maximum stacksize for task 39: unlimited
  | Maximum stacksize for task 40: unlimited
  | Maximum stacksize for task 41: unlimited
  | Maximum stacksize for task 42: unlimited
  | Maximum stacksize for task 43: unlimited
  | Maximum stacksize for task 44: unlimited
  | Maximum stacksize for task 45: unlimited
  | Maximum stacksize for task 46: unlimited
  | Maximum stacksize for task 47: unlimited
  | Maximum stacksize for task 48: unlimited
  | Maximum stacksize for task 49: unlimited
  | Maximum stacksize for task 50: unlimited
  | Maximum stacksize for task 51: unlimited
  | Maximum stacksize for task 52: unlimited
  | Maximum stacksize for task 53: unlimited
  | Maximum stacksize for task 54: unlimited
  | Maximum stacksize for task 55: unlimited
  | Maximum stacksize for task 56: unlimited
  | Maximum stacksize for task 57: unlimited
  | Maximum stacksize for task 58: unlimited
  | Maximum stacksize for task 59: unlimited
  | Maximum stacksize for task 60: unlimited
  | Maximum stacksize for task 61: unlimited
  | Maximum stacksize for task 62: unlimited
  | Maximum stacksize for task 63: unlimited
  | Maximum stacksize for task 64: unlimited
  | Maximum stacksize for task 65: unlimited
  | Maximum stacksize for task 66: unlimited
  | Maximum stacksize for task 67: unlimited
  | Maximum stacksize for task 68: unlimited
  | Maximum stacksize for task 69: unlimited
  | Maximum stacksize for task 70: unlimited
  | Maximum stacksize for task 71: unlimited
  | Maximum stacksize for task 72: unlimited
  | Maximum stacksize for task 73: unlimited
  | Maximum stacksize for task 74: unlimited
  | Maximum stacksize for task 75: unlimited
  | Maximum stacksize for task 76: unlimited
  | Maximum stacksize for task 77: unlimited
  | Maximum stacksize for task 78: unlimited
  | Maximum stacksize for task 79: unlimited
  | Maximum stacksize for task 80: unlimited
  | Maximum stacksize for task 81: unlimited
  | Maximum stacksize for task 82: unlimited
  | Maximum stacksize for task 83: unlimited
  | Maximum stacksize for task 84: unlimited
  | Maximum stacksize for task 85: unlimited
  | Maximum stacksize for task 86: unlimited
  | Maximum stacksize for task 87: unlimited
  | Maximum stacksize for task 88: unlimited
  | Maximum stacksize for task 89: unlimited
  | Maximum stacksize for task 90: unlimited
  | Maximum stacksize for task 91: unlimited
  | Maximum stacksize for task 92: unlimited
  | Maximum stacksize for task 93: unlimited
  | Maximum stacksize for task 94: unlimited
  | Maximum stacksize for task 95: unlimited
  | Maximum stacksize for task 96: unlimited
  | Maximum stacksize for task 97: unlimited
  | Maximum stacksize for task 98: unlimited
  | Maximum stacksize for task 99: unlimited
  | Maximum stacksize for task 100: unlimited
  | Maximum stacksize for task 101: unlimited
  | Maximum stacksize for task 102: unlimited
  | Maximum stacksize for task 103: unlimited
  | Maximum stacksize for task 104: unlimited
  | Maximum stacksize for task 105: unlimited
  | Maximum stacksize for task 106: unlimited
  | Maximum stacksize for task 107: unlimited
  | Maximum stacksize for task 108: unlimited
  | Maximum stacksize for task 109: unlimited
  | Maximum stacksize for task 110: unlimited
  | Maximum stacksize for task 111: unlimited
  | Maximum stacksize for task 112: unlimited
  | Maximum stacksize for task 113: unlimited
  | Maximum stacksize for task 114: unlimited
  | Maximum stacksize for task 115: unlimited
  | Maximum stacksize for task 116: unlimited
  | Maximum stacksize for task 117: unlimited
  | Maximum stacksize for task 118: unlimited
  | Maximum stacksize for task 119: unlimited
  | Maximum stacksize for task 120: unlimited
  | Maximum stacksize for task 121: unlimited
  | Maximum stacksize for task 122: unlimited
  | Maximum stacksize for task 123: unlimited
  | Maximum stacksize for task 124: unlimited
  | Maximum stacksize for task 125: unlimited
  | Maximum stacksize for task 126: unlimited
  | Maximum stacksize for task 127: unlimited
  | Maximum stacksize for task 128: unlimited
  | Maximum stacksize for task 129: unlimited
  | Maximum stacksize for task 130: unlimited
  | Maximum stacksize for task 131: unlimited
  | Maximum stacksize for task 132: unlimited
  | Maximum stacksize for task 133: unlimited
  | Maximum stacksize for task 134: unlimited
  | Maximum stacksize for task 135: unlimited
  | Maximum stacksize for task 136: unlimited
  | Maximum stacksize for task 137: unlimited
  | Maximum stacksize for task 138: unlimited
  | Maximum stacksize for task 139: unlimited
  | Maximum stacksize for task 140: unlimited
  | Maximum stacksize for task 141: unlimited
  | Maximum stacksize for task 142: unlimited
  | Maximum stacksize for task 143: unlimited
  | Maximum stacksize for task 144: unlimited
  | Maximum stacksize for task 145: unlimited
  | Maximum stacksize for task 146: unlimited
  | Maximum stacksize for task 147: unlimited
  | Maximum stacksize for task 148: unlimited
  | Maximum stacksize for task 149: unlimited
  | Maximum stacksize for task 150: unlimited
  | Maximum stacksize for task 151: unlimited
  | Maximum stacksize for task 152: unlimited
  | Maximum stacksize for task 153: unlimited
  | Maximum stacksize for task 154: unlimited
  | Maximum stacksize for task 155: unlimited
  | Maximum stacksize for task 156: unlimited
  | Maximum stacksize for task 157: unlimited
  | Maximum stacksize for task 158: unlimited
  | Maximum stacksize for task 159: unlimited
  | Current stacksize for task 0: unlimited
  | Current stacksize for task 1: unlimited
  | Current stacksize for task 2: unlimited
  | Current stacksize for task 3: unlimited
  | Current stacksize for task 4: unlimited
  | Current stacksize for task 5: unlimited
  | Current stacksize for task 6: unlimited
  | Current stacksize for task 7: unlimited
  | Current stacksize for task 8: unlimited
  | Current stacksize for task 9: unlimited
  | Current stacksize for task 10: unlimited
  | Current stacksize for task 11: unlimited
  | Current stacksize for task 12: unlimited
  | Current stacksize for task 13: unlimited
  | Current stacksize for task 14: unlimited
  | Current stacksize for task 15: unlimited
  | Current stacksize for task 16: unlimited
  | Current stacksize for task 17: unlimited
  | Current stacksize for task 18: unlimited
  | Current stacksize for task 19: unlimited
  | Current stacksize for task 20: unlimited
  | Current stacksize for task 21: unlimited
  | Current stacksize for task 22: unlimited
  | Current stacksize for task 23: unlimited
  | Current stacksize for task 24: unlimited
  | Current stacksize for task 25: unlimited
  | Current stacksize for task 26: unlimited
  | Current stacksize for task 27: unlimited
  | Current stacksize for task 28: unlimited
  | Current stacksize for task 29: unlimited
  | Current stacksize for task 30: unlimited
  | Current stacksize for task 31: unlimited
  | Current stacksize for task 32: unlimited
  | Current stacksize for task 33: unlimited
  | Current stacksize for task 34: unlimited
  | Current stacksize for task 35: unlimited
  | Current stacksize for task 36: unlimited
  | Current stacksize for task 37: unlimited
  | Current stacksize for task 38: unlimited
  | Current stacksize for task 39: unlimited
  | Current stacksize for task 40: unlimited
  | Current stacksize for task 41: unlimited
  | Current stacksize for task 42: unlimited
  | Current stacksize for task 43: unlimited
  | Current stacksize for task 44: unlimited
  | Current stacksize for task 45: unlimited
  | Current stacksize for task 46: unlimited
  | Current stacksize for task 47: unlimited
  | Current stacksize for task 48: unlimited
  | Current stacksize for task 49: unlimited
  | Current stacksize for task 50: unlimited
  | Current stacksize for task 51: unlimited
  | Current stacksize for task 52: unlimited
  | Current stacksize for task 53: unlimited
  | Current stacksize for task 54: unlimited
  | Current stacksize for task 55: unlimited
  | Current stacksize for task 56: unlimited
  | Current stacksize for task 57: unlimited
  | Current stacksize for task 58: unlimited
  | Current stacksize for task 59: unlimited
  | Current stacksize for task 60: unlimited
  | Current stacksize for task 61: unlimited
  | Current stacksize for task 62: unlimited
  | Current stacksize for task 63: unlimited
  | Current stacksize for task 64: unlimited
  | Current stacksize for task 65: unlimited
  | Current stacksize for task 66: unlimited
  | Current stacksize for task 67: unlimited
  | Current stacksize for task 68: unlimited
  | Current stacksize for task 69: unlimited
  | Current stacksize for task 70: unlimited
  | Current stacksize for task 71: unlimited
  | Current stacksize for task 72: unlimited
  | Current stacksize for task 73: unlimited
  | Current stacksize for task 74: unlimited
  | Current stacksize for task 75: unlimited
  | Current stacksize for task 76: unlimited
  | Current stacksize for task 77: unlimited
  | Current stacksize for task 78: unlimited
  | Current stacksize for task 79: unlimited
  | Current stacksize for task 80: unlimited
  | Current stacksize for task 81: unlimited
  | Current stacksize for task 82: unlimited
  | Current stacksize for task 83: unlimited
  | Current stacksize for task 84: unlimited
  | Current stacksize for task 85: unlimited
  | Current stacksize for task 86: unlimited
  | Current stacksize for task 87: unlimited
  | Current stacksize for task 88: unlimited
  | Current stacksize for task 89: unlimited
  | Current stacksize for task 90: unlimited
  | Current stacksize for task 91: unlimited
  | Current stacksize for task 92: unlimited
  | Current stacksize for task 93: unlimited
  | Current stacksize for task 94: unlimited
  | Current stacksize for task 95: unlimited
  | Current stacksize for task 96: unlimited
  | Current stacksize for task 97: unlimited
  | Current stacksize for task 98: unlimited
  | Current stacksize for task 99: unlimited
  | Current stacksize for task 100: unlimited
  | Current stacksize for task 101: unlimited
  | Current stacksize for task 102: unlimited
  | Current stacksize for task 103: unlimited
  | Current stacksize for task 104: unlimited
  | Current stacksize for task 105: unlimited
  | Current stacksize for task 106: unlimited
  | Current stacksize for task 107: unlimited
  | Current stacksize for task 108: unlimited
  | Current stacksize for task 109: unlimited
  | Current stacksize for task 110: unlimited
  | Current stacksize for task 111: unlimited
  | Current stacksize for task 112: unlimited
  | Current stacksize for task 113: unlimited
  | Current stacksize for task 114: unlimited
  | Current stacksize for task 115: unlimited
  | Current stacksize for task 116: unlimited
  | Current stacksize for task 117: unlimited
  | Current stacksize for task 118: unlimited
  | Current stacksize for task 119: unlimited
  | Current stacksize for task 120: unlimited
  | Current stacksize for task 121: unlimited
  | Current stacksize for task 122: unlimited
  | Current stacksize for task 123: unlimited
  | Current stacksize for task 124: unlimited
  | Current stacksize for task 125: unlimited
  | Current stacksize for task 126: unlimited
  | Current stacksize for task 127: unlimited
  | Current stacksize for task 128: unlimited
  | Current stacksize for task 129: unlimited
  | Current stacksize for task 130: unlimited
  | Current stacksize for task 131: unlimited
  | Current stacksize for task 132: unlimited
  | Current stacksize for task 133: unlimited
  | Current stacksize for task 134: unlimited
  | Current stacksize for task 135: unlimited
  | Current stacksize for task 136: unlimited
  | Current stacksize for task 137: unlimited
  | Current stacksize for task 138: unlimited
  | Current stacksize for task 139: unlimited
  | Current stacksize for task 140: unlimited
  | Current stacksize for task 141: unlimited
  | Current stacksize for task 142: unlimited
  | Current stacksize for task 143: unlimited
  | Current stacksize for task 144: unlimited
  | Current stacksize for task 145: unlimited
  | Current stacksize for task 146: unlimited
  | Current stacksize for task 147: unlimited
  | Current stacksize for task 148: unlimited
  | Current stacksize for task 149: unlimited
  | Current stacksize for task 150: unlimited
  | Current stacksize for task 151: unlimited
  | Current stacksize for task 152: unlimited
  | Current stacksize for task 153: unlimited
  | Current stacksize for task 154: unlimited
  | Current stacksize for task 155: unlimited
  | Current stacksize for task 156: unlimited
  | Current stacksize for task 157: unlimited
  | Current stacksize for task 158: unlimited
  | Current stacksize for task 159: unlimited
 
  Consistency checks for the contents of control.in are next.
 
  HSE06 functional: Converting omega to        0.26458860 bohr^-1.
  HSE06 screening parameters: omega_HF  =      0.26458860 bohr^-1, and
                              omega_PBE =      0.26458860 bohr^-1.
  MPI_IN_PLACE appears to work with this MPI implementation.
  | Keeping use_mpi_in_place .true. (see manual).
  Explicit treatment of the Coulomb operator is needed, but the RI method is not specified.
  Coulomb operator: Defaulting to 'LVL fast' resolution of identity - RI_type = LVL_fast
  Species Mo: Using default value for prodbas_acc =   1.000000E-04.
  Species Mo: Using default value max_l_prodbas =    20.
  Species S: Using default value for prodbas_acc =   1.000000E-04.
  Species S: Using default value max_l_prodbas =    20.
  Species Se: Using default value for prodbas_acc =   1.000000E-04.
  Species Se: Using default value max_l_prodbas =    20.
  Species W: Using default value for prodbas_acc =   1.000000E-04.
  Species W: Using default value max_l_prodbas =    20.
  Target number of points in a grid batch is not set. Defaulting to  100
  Method for grid partitioning is not set. Defaulting to parallel hash+maxmin partitioning.
  Batch size limit is not set. Defaulting to    200
  By default, will store active basis functions for each batch.
  If in need of memory, prune_basis_once .false. can be used to disable this option.
  communication_type for Hartree potential was not specified.
  Defaulting to calc_hartree .
  Pulay mixer: Number of initial linear mixing iterations not set.
  Defaulting to    0 iterations.
  Work space size for distributed Hartree potential not set.
  Defaulting to   0.200000E+03 MB.
  Algorithm-dependent basis array size parameters:
  | n_max_pulay                         :       12
  Maximum number of self-consistency iterations not provided.
  Presetting  1000 iterations.
  Presetting      1001 iterations before the initial mixing cycle
  is restarted anyway using the sc_init_iter criterion / keyword.
  Presetting a factor      1.000 between actual scf density residual
  and density convergence criterion sc_accuracy_rho below which sc_init_iter
  takes no effect.
 * No s.c.f. convergence criteria (sc_accuracy_*) were provided in control.in.
 * The run will proceed with a reasonable default guess, but please check whether.
 * the s.c.f. cycles seem to take too much or too little time.
  No maximum number of relaxation steps, defaulting to     1000
  Default initial Hessian is Lindh matrix (thres = 15.00) plus  0.200000E+01 eV/A^2 times unity.
  No maximum energy tolerance for TRM/BFGS moves, defaulting to   0.100000E-02
  Maximum energy tolerance by which TRM/BFGS trajectory may increase over multiple steps:   0.300000E-02
  No harmonic length scale. Defaulting to   0.250000E-01 A.
  No trust radius initializer. Defaulting to   0.200000E+00 A.
  Forces evaluation will include force correction term due to incomplete self-consistency (default).
 * Notice: The s.c.f. convergence criterion sc_accuracy_rho was not provided.
 * We used to stop in this case, and ask the user to provide reasonable
 * scf convergence criteria. However, this led some users to employ criteria
 * that led to extremely long run times, e.g., for simple relaxation.
 * We now preset a default value for sc_accuracy_rho if it is not set.
 * You may still wish to check if this setting is too tight or too loose for your needs.
 * Based on n_atoms and forces and force-correction status, FHI-aims chose sc_accuracy_rho =  0.280951E-04 .
  Force calculation: scf convergence accuracy of forces not set.
  Defaulting to 'sc_accuracy_forces not_checked'.
  Handling of forces: Unphysical translation and rotation will be removed from forces.
  No accuracy limit for integral partition fn. given. Defaulting to  0.1000E-14.
  No threshold value for u(r) in integrations given. Defaulting to  0.1000E-05.
  No accuracy for occupation numbers given. Defaulting to  0.1000E-12.
  No threshold value for occupation numbers given. Defaulting to  0.0000E+00.
  No accuracy for fermi level given. Defaulting to  0.1000E-19.
  Maximum # of iterations to find E_F not set. Defaulting to  200.
  Preferred method for the eigenvalue solver ('KS_method') not specified in 'control.in'.
  Calling BLACS routine to test compilation state
  Since ScaLAPACK support is enabled, defaulting to ELPA (via ELSI).
  Will not use alltoall communication since running on < 1024 CPUs.
  Threshold for basis singularities not set.
  Default threshold for basis singularities:  0.1000E-04
  partition_type (choice of integration weights) for integrals was not specified.
  | Using a version of the partition function of Stratmann and coworkers ('stratmann_sparse').
  | At each grid point, the set of atoms used to build the partition table is smoothly restricted to
  | only those atoms whose free-atom density would be non-zero at that grid point.
  Partitioning for Hartree potential was not defined. Using partition_type for integrals.
  | Adjusted default value of keyword multip_moments_threshold to:       0.10000000E-11
  | This value may affect high angular momentum components of the Hartree potential in periodic systems.
  Spin handling was not defined in control.in. Defaulting to unpolarized case.
  Threshold for auxiliary basis singularities not set.
  Default threshold for auxiliary basis singularities:  0.1000E-04
  No q(lm)/r^(l+1) cutoff set for long-range Hartree potential.
  | Using default value of  0.100000E-09 .
  | Verify using the multipole_threshold keyword.
  Defaulting to new monopole extrapolation.
  Density update method: automatic selection selected.
  Using density matrix based charge density update.
  Using density matrix based charge density update.
  Using packed matrix style: index .
 * NOTE: You are attempting to run a periodic structure with an exchange treatment
 * which requires a two-electron Coulomb operator (Hartree-Fock or a hybrid functional).
 * The present implementation is reliable to our knowledge, but some things
 * (like band structure output, or perhaps the auxilary basis set for small
 * orbital basis sets - see the "for_aux" keyword) require extra care.
 * Please let us know if you encounter any trouble.
  Coulomb operator: Defaulting to screening threshold for four-center integrals:   0.100000E-06
  Coulomb operator: Defaulting to screening threshold for Coulomb matrix:   0.100000E-09
  Coulomb operator: Defaulting to 'LVL_fast' resolution of identity - RI_type = LVL_fast 
  No other resolution of identity version is supported for periodic boundary conditions at present.
  Coulomb operator: Defaulting to logarithmic spherical Bessel transform integrals (use_logsbt .true.).
  HSE with LVL_fast: Also defaulting to logarithmic spherical Bessel transform integrals.
  Geometry relaxation: A file "geometry.in.next_step" is written out by default after each step.
  | This file contains the geometry of the current relaxation step as well as
  | the current Hessian matrix needed to restart the relaxation algorithm.
  | If you do not want part or all of this information, use the keywords
  | "write_restart_geometry" or "hessian_to_restart_geometry" to switch the output off.
  Defaulting to use full k-point grid (no symmetry reduction).
  Charge integration errors on the 3D integration grid will be compensated
  by explicit normalization and distribution of residual charges.
  Use the "compensate_multipole_errors" flag to change this behaviour.
  LVL not implemented with density matrix yet
  -> switching to transformed overlap
  LVL probably works better with logsbt
  Default to 1D ("use_logsbt") integrations for auxiliary 2-center integrals.
  Default onset of logarithmic r-grid for SBT is -38.000000000000
  Default onset of logarithmic k-grid for SBT is -25.000000000000
  Default range of logarithmic r- and k-grid for SBT is  45.000000000000
  Default number of logarithmic r- and k-grid for SBT is   4096
  * Use logSBT for radial HSE integration, too
  Default of use_2d_corr is to use the efficient 2D distribution where possible
 
  Consistency checks for the contents of geometry.in are next.
 

  Range separation radius for Ewald summation (hartree_convergence_parameter):      5.00000000 bohr.
  Structure-dependent array size parameters: 
  | Maximum number of distinct radial functions  :       56
  | Maximum number of basis functions            :     3291
  | Number of Kohn-Sham states (occupied + empty):     1613
------------------------------------------------------------
  Setting Coulomb cut-width to  1.091868692359 * rcut.
  Setting Coulomb cutting radius rcut to 31.799999999701 A.
 Error: The dipole correction needs vacuum z-level to be defined
 Vacuum level will be determined automatically.
 Determine position of vacuum level automatically
 **WARNING** : This feature is experimental and still requires some testing
 **PLEASE ** : If you see it fail, please report.
 Vacuum level determined:
 set_vacuum_level    52.5528146300000

------------------------------------------------------------
          Preparing all fixed parts of the calculation.
------------------------------------------------------------
  Determining machine precision:
    2.225073858507201E-308
  Setting up grids for atomic and cluster calculations.

  Creating wave function, potential, and density for free atoms.

  Species: Mo

  List of occupied orbitals and eigenvalues:
    n    l              occ      energy [Ha]    energy [eV]
    1    0           2.0000      -745.344654    -20281.8600
    2    0           2.0000      -103.288246     -2810.6162
    3    0           2.0000       -17.516687      -476.6533
    4    0           2.0000        -2.358559       -64.1796
    5    0           1.0000        -0.145159        -3.9500
    2    1           6.0000       -92.308627     -2511.8455
    3    1           6.0000       -13.936005      -379.2180
    4    1           6.0000        -1.408138       -38.3174
    3    2          10.0000        -8.119011      -220.9295
    4    2           5.0000        -0.132984        -3.6187


  Species: S

  List of occupied orbitals and eigenvalues:
    n    l              occ      energy [Ha]    energy [eV]
    1    0           2.0000       -88.680731     -2413.1255
    2    0           2.0000        -7.781719      -211.7513
    3    0           2.0000        -0.633662       -17.2428
    2    1           6.0000        -5.751976      -156.5192
    3    1           4.0000        -0.257086        -6.9957


  Species: Se

  List of occupied orbitals and eigenvalues:
    n    l              occ      energy [Ha]    energy [eV]
    1    0           2.0000      -466.337810    -12689.6975
    2    0           2.0000       -59.202598     -1610.9847
    3    0           2.0000        -7.847116      -213.5309
    4    0           2.0000        -0.634372       -17.2621
    2    1           6.0000       -52.061107     -1416.6548
    3    1           6.0000        -5.620941      -152.9536
    4    1           4.0000        -0.238469        -6.4891
    3    2          10.0000        -1.951949       -53.1152


  Species: W

  List of occupied orbitals and eigenvalues:
    n    l              occ      energy [Ha]    energy [eV]
    1    0           2.0000     -2764.899999    -75236.7570
    2    0           2.0000      -447.822848    -12185.8797
    3    0           2.0000      -101.923634     -2773.4832
    4    0           2.0000       -20.945301      -569.9506
    5    0           2.0000        -2.899582       -78.9016
    6    0           2.0000        -0.207066        -5.6345
    2    1           6.0000      -391.021390    -10640.2334
    3    1           6.0000       -85.417793     -2324.3364
    4    1           6.0000       -15.562838      -423.4864
    5    1           6.0000        -1.582233       -43.0547
    3    2          10.0000       -66.517936     -1810.0451
    4    2          10.0000        -8.758436      -238.3292
    5    2           4.0000        -0.161873        -4.4048
    4    3          14.0000        -1.221948       -33.2509


  Adding cutoff potential to free-atom effective potential.
  Creating fixed part of basis set: Ionic, confined, hydrogenic.
 
  Mo                   ion:

  List of free ionic orbitals and eigenvalues:
    n    l      energy [Ha]    energy [eV]
    1    0      -746.048685    -20301.0176
    2    0      -103.980912     -2829.4646
    3    0       -18.206601      -495.4268
    4    0        -3.040545       -82.7374
    2    1       -93.001013     -2530.6863
    3    1       -14.625827      -397.9890
    4    1        -2.084855       -56.7318
    3    2        -8.808854      -239.7011
    4    2        -0.765435       -20.8285


  List of ionic basis orbitals and eigenvalues:
    n    l      energy [Ha]    energy [eV]    outer radius [A]
    5    1        -0.465587       -12.6693       5.456393
    5    0        -0.650331       -17.6964       5.390095

 
  Mo                   hydrogenic:
 
  List of hydrogenic basis orbitals: 
    n    l      effective z      eigenvalue [eV]  inner max. [A]     outer max. [A]     outer radius [A]   
    4    3         8.400000       -60.0010           1.009788           1.009788           4.487018
    3    2         2.800000       -11.8048           1.687401           1.687401           5.456393
 
  List of extra hydrogenic orbitals for auxiliary basis: 
    n    l      effective z      eigenvalue [eV]  inner max. [A]     outer max. [A]     outer radius [A]   
    5    4        12.000000       -78.3687           1.100005           1.100005           4.432498
 
 
  S                    ion:

  List of free ionic orbitals and eigenvalues:
[...]
  Task     62: my_n_atom_pairs:    128
  Task     63: my_n_atom_pairs:    115
  Task     64: my_n_atom_pairs:    116
  Task     65: my_n_atom_pairs:    128
  Task     66: my_n_atom_pairs:    128
  Task     67: my_n_atom_pairs:    128
  Task     68: my_n_atom_pairs:    128
  Task     69: my_n_atom_pairs:    128
  Task     70: my_n_atom_pairs:    128
  Task     71: my_n_atom_pairs:    231
  Task     72: my_n_atom_pairs:    260
  Task     73: my_n_atom_pairs:    260
  Task     74: my_n_atom_pairs:    260
  Task     75: my_n_atom_pairs:    230
  Task     76: my_n_atom_pairs:    259
  Task     77: my_n_atom_pairs:    259
  Task     78: my_n_atom_pairs:    259
  Task     79: my_n_atom_pairs:    229
  Task     80: my_n_atom_pairs:    260
  Task     81: my_n_atom_pairs:    260
  Task     82: my_n_atom_pairs:    260
  Task     83: my_n_atom_pairs:    230
  Task     84: my_n_atom_pairs:    255
  Task     85: my_n_atom_pairs:    255
  Task     86: my_n_atom_pairs:    255
  Task     87: my_n_atom_pairs:    231
  Task     88: my_n_atom_pairs:    255
  Task     89: my_n_atom_pairs:    255
  Task     90: my_n_atom_pairs:    255
  Task     91: my_n_atom_pairs:    231
  Task     92: my_n_atom_pairs:    255
  Task     93: my_n_atom_pairs:    255
  Task     94: my_n_atom_pairs:    255
  Task     95: my_n_atom_pairs:    231
  Task     96: my_n_atom_pairs:    260
  Task     97: my_n_atom_pairs:    260
  Task     98: my_n_atom_pairs:    260
  Task     99: my_n_atom_pairs:    230
  Task    100: my_n_atom_pairs:    260
  Task    101: my_n_atom_pairs:    260
  Task    102: my_n_atom_pairs:    260
  Task    103: my_n_atom_pairs:    230
  Task    104: my_n_atom_pairs:    256
  Task    105: my_n_atom_pairs:    256
  Task    106: my_n_atom_pairs:    256
  Task    107: my_n_atom_pairs:    231
  Task    108: my_n_atom_pairs:    255
  Task    109: my_n_atom_pairs:    255
  Task    110: my_n_atom_pairs:    255
  Task    111: my_n_atom_pairs:    231
  Task    112: my_n_atom_pairs:    255
  Task    113: my_n_atom_pairs:    255
  Task    114: my_n_atom_pairs:    255
  Task    115: my_n_atom_pairs:    231
  Task    116: my_n_atom_pairs:    256
  Task    117: my_n_atom_pairs:    256
  Task    118: my_n_atom_pairs:    256
  Task    119: my_n_atom_pairs:    231
  Task    120: my_n_atom_pairs:    257
  Task    121: my_n_atom_pairs:    257
  Task    122: my_n_atom_pairs:    257
  Task    123: my_n_atom_pairs:    229
  Task    124: my_n_atom_pairs:    257
  Task    125: my_n_atom_pairs:    257
  Task    126: my_n_atom_pairs:    257
  Task    127: my_n_atom_pairs:    229
  Task    128: my_n_atom_pairs:    256
  Task    129: my_n_atom_pairs:    256
  Task    130: my_n_atom_pairs:    256
  Task    131: my_n_atom_pairs:    231
  Task    132: my_n_atom_pairs:    255
  Task    133: my_n_atom_pairs:    255
  Task    134: my_n_atom_pairs:    255
  Task    135: my_n_atom_pairs:    231
  Task    136: my_n_atom_pairs:    256
  Task    137: my_n_atom_pairs:    256
  Task    138: my_n_atom_pairs:    256
  Task    139: my_n_atom_pairs:    231
  Task    140: my_n_atom_pairs:    260
  Task    141: my_n_atom_pairs:    260
  Task    142: my_n_atom_pairs:    260
  Task    143: my_n_atom_pairs:    230
  Task    144: my_n_atom_pairs:    257
  Task    145: my_n_atom_pairs:    257
  Task    146: my_n_atom_pairs:    257
  Task    147: my_n_atom_pairs:    229
  Task    148: my_n_atom_pairs:    260
  Task    149: my_n_atom_pairs:    260
  Task    150: my_n_atom_pairs:    260
  Task    151: my_n_atom_pairs:    230
  Task    152: my_n_atom_pairs:    260
  Task    153: my_n_atom_pairs:    260
  Task    154: my_n_atom_pairs:    260
  Task    155: my_n_atom_pairs:    230
  Task    156: my_n_atom_pairs:    260
  Task    157: my_n_atom_pairs:    260
  Task    158: my_n_atom_pairs:    260
  Task    159: my_n_atom_pairs:    230
  Max. memory consumption per node for Hartree Fock matrix + Pulay mixing [GB]:     11.47
  --- Initializing LVL triples, type HSE
  | Storage requirements for basis-basbas products (processor-local):
  |   Species Mo: n_prodsfn:     0; storage:        0.00 MiB.
  |   Species S: n_prodsfn:   816; storage:       25.50 MiB.
  |   Species Se: n_prodsfn:     0; storage:        0.00 MiB.
  |   Species W: n_prodsfn:  3082; storage:       96.31 MiB.

  --- Initializing Coulomb matrix calculations, type HSE
  Preparing TB like auxiliary 2-center HSE-pot matrix
  SBT integration errors (all should be 'small'):
  large logFT aliasing -> increase N/lnrange
  large SBT aliasing -> decrease lnk0 & increase lnk0+lnrange
  large SBT ringing -> decrease lnr0 & increase lnr0+lnrange
  |            El't  L: logFT-al.   small-k   large-k   small-r   large-r
  | Need to store 29035 splines of   190 points taking      43560 KiB.
  | Spline reduction from  4096 to   190 points by (cutting and)     1 x coarsening gives error:  0.00E+00
  | Maximum value outside interaction range:  3.25E-13
  Finished with initialize_tb_auxmat/lvl_triples, time:        0.678
  Upper limit for memory consumption per node [GB] for Coulomb matrices if no compression occurs:     410.221
  Upper limit for temporary arrays in Coulomb matrix initalization [GB]:     12.00
  --- Calculating Coulomb matrices
  Max. memory consumption per node for Coulomb matrix [GB]:     25.54
  Time to calculate Coulomb Matrices   :       15.503
   Number of Coulomb matrix elements:
  | Task     0 total:      709203264, > threshold:       38242272, stored:       60483218
  | Task     1 total:      709203264, > threshold:       39357249, stored:       60723877
  | Task     2 total:      709203264, > threshold:       39030021, stored:       60669938
  | Task     3 total:      709203264, > threshold:       39284329, stored:       60713676
  | Task     4 total:      709203264, > threshold:       38942202, stored:       60655615
  | Task     5 total:      709203264, > threshold:       39088663, stored:       60431486
  | Task     6 total:      709203264, > threshold:       38873160, stored:       60467120
  | Task     7 total:      709203264, > threshold:       38698542, stored:       60450363
  | Task     8 total:      709203264, > threshold:       38659707, stored:       60506935
  | Task     9 total:      709203264, > threshold:       38513955, stored:       60542012
  | Task    10 total:      709203264, > threshold:       38434953, stored:       60666940
  | Task    11 total:      709203264, > threshold:       39380899, stored:       60724069
  | Task    12 total:      709203264, > threshold:       39022176, stored:       60670082
  | Task    13 total:      709203264, > threshold:       39149980, stored:       60550840
  | Task    14 total:      709203264, > threshold:       39355667, stored:       60692964
  | Task    15 total:      709203264, > threshold:       39066566, stored:       60651182
  | Task    16 total:      709203264, > threshold:       38468530, stored:       60535105
  | Task    17 total:      709203264, > threshold:       38261267, stored:       60653711
  | Task    18 total:      709203264, > threshold:       38964430, stored:       60390082
  | Task    19 total:      709203264, > threshold:       39075594, stored:       60530133
  | Task    20 total:      709203264, > threshold:       38724670, stored:       60380995
  | Task    21 total:      709203264, > threshold:       38679630, stored:       60501841
  | Task    22 total:      709203264, > threshold:       39281725, stored:       60713972
  | Task    23 total:      709203264, > threshold:       38937888, stored:       60655878
  | Task    24 total:      709203264, > threshold:       39383668, stored:       60692897
  | Task    25 total:      709203264, > threshold:       39046839, stored:       60650305
  | Task    26 total:      709203264, > threshold:       38143210, stored:       60354882
  | Task    27 total:      709203264, > threshold:       38041437, stored:       60507043
  | Task    28 total:      709203264, > threshold:       38958671, stored:       60390082
  | Task    29 total:      709203264, > threshold:       39092594, stored:       60530238
  | Task    30 total:      709203264, > threshold:       38600345, stored:       60382283
  | Task    31 total:      709203264, > threshold:       38657208, stored:       60545325
  | Task    32 total:      709203264, > threshold:       38456903, stored:       60536294
  | Task    33 total:      709203264, > threshold:       38332454, stored:       60666822
  | Task    34 total:      709203264, > threshold:       39099306, stored:       60431426
  | Task    35 total:      709203264, > threshold:       38864620, stored:       60467505
  | Task    36 total:      709203264, > threshold:       38453561, stored:       60534288
  | Task    37 total:      709203264, > threshold:       38310000, stored:       60653711
  | Task    38 total:      709203264, > threshold:       38514977, stored:       60542012
  | Task    39 total:      709203264, > threshold:       38468023, stored:       60667033
  | Task    40 total:      709203264, > threshold:       38719585, stored:       60380986
  | Task    41 total:      709203264, > threshold:       38676675, stored:       60502646
  | Task    42 total:      709203264, > threshold:       38451896, stored:       60536470
  | Task    43 total:      709203264, > threshold:       38366439, stored:       60666957
  | Task    44 total:      709203264, > threshold:       38289250, stored:       60434358
  | Task    45 total:      709203264, > threshold:       38318386, stored:       60522529
  | Task    46 total:      709203264, > threshold:       38687869, stored:       60450119
  | Task    47 total:      709203264, > threshold:       38657986, stored:       60506935
  | Task    48 total:      709203264, > threshold:       38507875, stored:       60427248
  | Task    49 total:      605802000, > threshold:       23255370, stored:       40018324
  | Task    50 total:      676139760, > threshold:       23509858, stored:       39673674
  | Task    51 total:      605802000, > threshold:       23255370, stored:       40018324
  | Task    52 total:      676139760, > threshold:       23509858, stored:       39673674
  | Task    53 total:      605802000, > threshold:       23255370, stored:       40018324
  | Task    54 total:      676139760, > threshold:       23509858, stored:       39673674
  | Task    55 total:      605802000, > threshold:       23255370, stored:       40018324
  | Task    56 total:      676139760, > threshold:       23509858, stored:       39673674
  | Task    57 total:      645779600, > threshold:       23899238, stored:       40264965
  | Task    58 total:      636162160, > threshold:       23128500, stored:       39471368
  | Task    59 total:      645779600, > threshold:       23899238, stored:       40264965
  | Task    60 total:      636162160, > threshold:       23128500, stored:       39471368
  | Task    61 total:      645779600, > threshold:       23899238, stored:       40264965
  | Task    62 total:      636162160, > threshold:       23128500, stored:       39471368
  | Task    63 total:      645779600, > threshold:       23899238, stored:       40264965
  | Task    64 total:      636162160, > threshold:       23128500, stored:       39471368
  | Task    65 total:      605802000, > threshold:       22788846, stored:       39274303
  | Task    66 total:      676139760, > threshold:       24297049, stored:       40475538
  | Task    67 total:      605802000, > threshold:       22788846, stored:       39274303
  | Task    68 total:      676139760, > threshold:       24297049, stored:       40475538
  | Task    69 total:      605802000, > threshold:       22788846, stored:       39274303
  | Task    70 total:      676139760, > threshold:       24297049, stored:       40475538
  | Task    71 total:     1281941760, > threshold:       47085895, stored:       79749841
  | Task    72 total:     1281941760, > threshold:       46769826, stored:       79696108
  | Task    73 total:     1281941760, > threshold:       46769826, stored:       79696108
  | Task    74 total:     1281941760, > threshold:       46769826, stored:       79696108
  | Task    75 total:     1281941760, > threshold:       46769826, stored:       79696108
  | Task    76 total:     1281941760, > threshold:       46312947, stored:       79740188
  | Task    77 total:     1281941760, > threshold:       46312947, stored:       79740188
  | Task    78 total:     1281941760, > threshold:       46312947, stored:       79740188
  | Task    79 total:     1281941760, > threshold:       46312947, stored:       79740188
  | Task    80 total:     1281941760, > threshold:       46929909, stored:       79691448
  | Task    81 total:     1281941760, > threshold:       46929909, stored:       79691448
  | Task    82 total:     1281941760, > threshold:       46929909, stored:       79691448
  | Task    83 total:     1281941760, > threshold:       46929909, stored:       79691448
  | Task    84 total:     1281941760, > threshold:       48293071, stored:       79815399
  | Task    85 total:     1281941760, > threshold:       48293071, stored:       79815399
  | Task    86 total:     1281941760, > threshold:       48293071, stored:       79815399
  | Task    87 total:     1281941760, > threshold:       48293071, stored:       79815399
  | Task    88 total:     1281941760, > threshold:       49632717, stored:       79962200
  | Task    89 total:     1281941760, > threshold:       49632717, stored:       79962200
  | Task    90 total:     1281941760, > threshold:       49632717, stored:       79962200
  | Task    91 total:     1281941760, > threshold:       49632717, stored:       79962200
  | Task    92 total:     1281941760, > threshold:       49012285, stored:       79816561
  | Task    93 total:     1281941760, > threshold:       49012285, stored:       79816561
  | Task    94 total:     1281941760, > threshold:       49012285, stored:       79816561
  | Task    95 total:     1281941760, > threshold:       49012285, stored:       79816561
  | Task    96 total:     1281941760, > threshold:       46913862, stored:       79685062
  | Task    97 total:     1281941760, > threshold:       46913862, stored:       79685062
  | Task    98 total:     1281941760, > threshold:       46913862, stored:       79685062
  | Task    99 total:     1281941760, > threshold:       46913862, stored:       79685062
  | Task   100 total:     1281941760, > threshold:       48430198, stored:       79770228
  | Task   101 total:     1281941760, > threshold:       48430198, stored:       79770228
  | Task   102 total:     1281941760, > threshold:       48430198, stored:       79770228
  | Task   103 total:     1281941760, > threshold:       48430198, stored:       79770228
  | Task   104 total:     1281941760, > threshold:       47007863, stored:       79736920
  | Task   105 total:     1281941760, > threshold:       47007863, stored:       79736920
  | Task   106 total:     1281941760, > threshold:       47007863, stored:       79736920
  | Task   107 total:     1281941760, > threshold:       47007863, stored:       79736920
  | Task   108 total:     1281941760, > threshold:       49636878, stored:       79962644
  | Task   109 total:     1281941760, > threshold:       49636878, stored:       79962644
  | Task   110 total:     1281941760, > threshold:       49636878, stored:       79962644
  | Task   111 total:     1281941760, > threshold:       49636878, stored:       79962644
  | Task   112 total:     1281941760, > threshold:       49001493, stored:       80002618
  | Task   113 total:     1281941760, > threshold:       49001493, stored:       80002618
  | Task   114 total:     1281941760, > threshold:       49001493, stored:       80002618
  | Task   115 total:     1281941760, > threshold:       49001493, stored:       80002618
  | Task   116 total:     1281941760, > threshold:       47083794, stored:       79772377
  | Task   117 total:     1281941760, > threshold:       47083794, stored:       79772377
  | Task   118 total:     1281941760, > threshold:       47083794, stored:       79772377
  | Task   119 total:     1281941760, > threshold:       47083794, stored:       79772377
  | Task   120 total:     1281941760, > threshold:       47866279, stored:       79705808
  | Task   121 total:     1281941760, > threshold:       47866279, stored:       79705808
  | Task   122 total:     1281941760, > threshold:       47866279, stored:       79705808
  | Task   123 total:     1281941760, > threshold:       47866279, stored:       79705808
  | Task   124 total:     1281941760, > threshold:       48455146, stored:       79698445
  | Task   125 total:     1281941760, > threshold:       48455146, stored:       79698445
  | Task   126 total:     1281941760, > threshold:       48455146, stored:       79698445
  | Task   127 total:     1281941760, > threshold:       48455146, stored:       79698445
  | Task   128 total:     1281941760, > threshold:       47060025, stored:       79749207
  | Task   129 total:     1281941760, > threshold:       47060025, stored:       79749207
  | Task   130 total:     1281941760, > threshold:       47060025, stored:       79749207
  | Task   131 total:     1281941760, > threshold:       47060025, stored:       79749207
  | Task   132 total:     1281941760, > threshold:       49013524, stored:       79816627
  | Task   133 total:     1281941760, > threshold:       49013524, stored:       79816627
  | Task   134 total:     1281941760, > threshold:       49013524, stored:       79816627
  | Task   135 total:     1281941760, > threshold:       49013524, stored:       79816627
  | Task   136 total:     1281941760, > threshold:       47070773, stored:       79772515
  | Task   137 total:     1281941760, > threshold:       47070773, stored:       79772515
  | Task   138 total:     1281941760, > threshold:       47070773, stored:       79772515
  | Task   139 total:     1281941760, > threshold:       47070773, stored:       79772515
  | Task   140 total:     1281941760, > threshold:       48441157, stored:       79771521
  | Task   141 total:     1281941760, > threshold:       48441157, stored:       79771521
  | Task   142 total:     1281941760, > threshold:       48441157, stored:       79771521
  | Task   143 total:     1281941760, > threshold:       48441157, stored:       79771521
  | Task   144 total:     1281941760, > threshold:       48428902, stored:       79699240
  | Task   145 total:     1281941760, > threshold:       48428902, stored:       79699240
  | Task   146 total:     1281941760, > threshold:       48428902, stored:       79699240
  | Task   147 total:     1281941760, > threshold:       48428902, stored:       79699240
  | Task   148 total:     1281941760, > threshold:       47683522, stored:       79776848
  | Task   149 total:     1281941760, > threshold:       47683522, stored:       79776848
  | Task   150 total:     1281941760, > threshold:       47683522, stored:       79776848
  | Task   151 total:     1281941760, > threshold:       47683522, stored:       79776848
  | Task   152 total:     1281941760, > threshold:       46791114, stored:       79695649
  | Task   153 total:     1281941760, > threshold:       46791114, stored:       79695649
  | Task   154 total:     1281941760, > threshold:       46791114, stored:       79695649
  | Task   155 total:     1281941760, > threshold:       46791114, stored:       79695649
  | Task   156 total:     1281941760, > threshold:       46877085, stored:       79686256
  | Task   157 total:     1281941760, > threshold:       46877085, stored:       79686256
  | Task   158 total:     1281941760, > threshold:       46877085, stored:       79686256
  | Task   159 total:     1281941760, > threshold:       46877085, stored:       79686256
  --- Done init_fock_matrix_calculations
  Max. memory per node for ovlp3fn matrices:       49.938 GB
  Total memory for ovlp3fn matrices:      185.315 GB
  Size of ovlp3fn for atom  114475       6     343
  --- Calculating OVLP3FN
