------------------------------------------------------------
          Invoking FHI-aims ...

          When using FHI-aims, please cite the following reference:

            Volker Blum, Ralf Gehrke, Felix Hanke, Paula Havu,
            Ville Havu, Xinguo Ren, Karsten Reuter, and Matthias Scheffler,
            'Ab Initio Molecular Simulations with Numeric Atom-Centered Orbitals',
            Computer Physics Communications 180, 2175-2196 (2009)

          In addition, many other developments in FHI-aims are likely important for
          your particular application. A partial list of references is given at the end of
          this file. Thank you for giving credit to the authors of these developments.

          For any questions about FHI-aims, please visit our slack channel at

            https://fhi-aims.slack.com

          and our main development and support site at

            https://aims-git.rz-berlin.mpg.de .

          The latter site, in particular, has a wiki to collect information, as well
          as an issue tracker to log discussions, suggest improvements, and report issues
          or bugs. https://aims-git.rz-berlin.mpg.de is also the main development site
          of the project and all new and updated code versions can be obtained there.
          Please send an email to aims-coordinators@fhi-berlin.mpg.de and we will add
          you to these sites. They are for you and everyone is welcome there.

------------------------------------------------------------



  Date     :  20210628, Time     :  160659.337
  Time zero on CPU 1             :   0.573530000000000E-01  s.
  Internal wall clock time zero  :           394128419.337  s.

  FHI-aims created a unique identifier for this run for later identification
  aims_uuid : 0FEC3660-7506-4C94-A618-E6D303D0072C

  Build configuration of the current instance of FHI-aims
  -------------------------------------------------------
  FHI-aims version      : 210513
  Commit number         : 300bfe3f4
  CMake host system     : Linux-4.12.14-122.63-default
  CMake version         : 3.5.2
  Fortran compiler      : /mpcdf/soft/SLE_12/packages/x86_64/intel_parallel_studio/2020.1/compilers_and_libraries_2020.1.217/linux/mpi/intel64/bin/mpiifort (Intel) version 19.1.0.20200306
  Fortran compiler flags: -O3 -ip -fp-model precise
  C compiler            : /mpcdf/soft/SLE_12/packages/x86_64/intel/19.1.1/bin/icc (Intel) version 19.1.0.20200306
  C compiler flags      : -O3 -ip -fp-model precise -std=gnu99
  C++ compiler          : /mpcdf/soft/SLE_12/packages/x86_64/intel/19.1.1/bin/icpc (Intel) version 19.1.0.20200306
  C++ compiler flags    : -O3 -ip -fp-model precise -std=gnu99
  Using MPI
  Using ScaLAPACK
  Using LibXC
  Using i-PI
  Using RLSY
  Linking against: /mpcdf/soft/SLE_12/packages/x86_64/intel_parallel_studio/2020.1/mkl/lib/intel64/libmkl_intel_lp64.so
                   /mpcdf/soft/SLE_12/packages/x86_64/intel_parallel_studio/2020.1/mkl/lib/intel64/libmkl_sequential.so
                   /mpcdf/soft/SLE_12/packages/x86_64/intel_parallel_studio/2020.1/mkl/lib/intel64/libmkl_core.so
                   /mpcdf/soft/SLE_12/packages/x86_64/intel_parallel_studio/2020.1/mkl/lib/intel64/libmkl_blacs_intelmpi_lp64.so
                   /mpcdf/soft/SLE_12/packages/x86_64/intel_parallel_studio/2020.1/mkl/lib/intel64/libmkl_scalapack_lp64.so

  Using       40 parallel tasks.
  Task        0 on host co2258 reporting.
  Task        1 on host co2258 reporting.
  Task        2 on host co2258 reporting.
  Task        3 on host co2258 reporting.
  Task        4 on host co2258 reporting.
  Task        5 on host co2258 reporting.
  Task        6 on host co2258 reporting.
  Task        7 on host co2258 reporting.
  Task        8 on host co2258 reporting.
  Task        9 on host co2258 reporting.
  Task       10 on host co2258 reporting.
  Task       11 on host co2258 reporting.
  Task       12 on host co2258 reporting.
  Task       13 on host co2258 reporting.
  Task       14 on host co2258 reporting.
  Task       15 on host co2258 reporting.
  Task       16 on host co2258 reporting.
  Task       17 on host co2258 reporting.
  Task       18 on host co2258 reporting.
  Task       19 on host co2258 reporting.
  Task       20 on host co2258 reporting.
  Task       21 on host co2258 reporting.
  Task       22 on host co2258 reporting.
  Task       23 on host co2258 reporting.
  Task       24 on host co2258 reporting.
  Task       25 on host co2258 reporting.
  Task       26 on host co2258 reporting.
  Task       27 on host co2258 reporting.
  Task       28 on host co2258 reporting.
  Task       29 on host co2258 reporting.
  Task       30 on host co2258 reporting.
  Task       31 on host co2258 reporting.
  Task       32 on host co2258 reporting.
  Task       33 on host co2258 reporting.
  Task       34 on host co2258 reporting.
  Task       35 on host co2258 reporting.
  Task       36 on host co2258 reporting.
  Task       37 on host co2258 reporting.
  Task       38 on host co2258 reporting.
  Task       39 on host co2258 reporting.

  Performing system and environment tests:
  | Environment variable OMP_NUM_THREADS correctly set to 1.
  | Checking for ScaLAPACK...
  | Testing pdtran()...
  | All pdtran() tests passed.

  Obtaining array dimensions for all initial allocations:
  
  -----------------------------------------------------------------------
  Parsing control.in (first pass over file, find array dimensions only).
  The contents of control.in will be repeated verbatim below
  unless switched off by setting 'verbatim_writeout .false.' .
  in the first line of control.in .
  -----------------------------------------------------------------------
  
  ##### Physical settings  ################
  xc                 pbe
  spin               none
  charge      0.0
  relativistic       atomic_zora scalar
  #elsi_restart read
  # SCF settings
  ########################################relax_geometry trm 1E-3
  
  #vdw_correction_hirshfeld
  # k-grid settings  (to be adjusted)
  #empty_states 8
  #use_dipole_correction
  #include_spin_orbit non_self_consistent
  
  mixer   pulay
  n_max_pulay        12 # high for metal
  charge_mix_param   0.1 #low for metal
  #many_body_dispersion_nl    beta=0.81 do_rpa=.true. rpa_rescale_eigs=.true. parallel_mode=k_points
  ################################################################################
  #
  #  FHI-aims code project
  # Volker Blum, Fritz Haber Institute Berlin, 2009
  #
  #  Suggested "tight" defaults for S atom (to be pasted into control.in file)
  #
  #  Revised Jan 04, 2011, following tests (SiC) done by Lydia Nemec:
  #     d and g functions of tier 2 now enabled by default.
  #
  ################################################################################
    species        S
  #     global species definitions
      nucleus             16
      mass                32.065
  #
      l_hartree           6
  #
      cut_pot             4.0          2.0  1.0
      basis_dep_cutoff    1e-4
  #
      radial_base         44 7.0
      radial_multiplier   2
      angular_grids       specified
        division   0.4665  110
        division   0.5810  194
        division   0.7139  302
        division   0.8274  434
  #      division   0.9105  590
  #      division   1.0975  770
  #      division   1.2028  974
  #      outer_grid  974
        outer_grid  434
  ################################################################################
  #
  #  Definition of "minimal" basis
  #
  ################################################################################
  #     valence basis states
      valence      3  s   2.
      valence      3  p   4.
  #     ion occupancy
      ion_occ      3  s   1.
      ion_occ      3  p   3.
  ################################################################################
  #
  #  Suggested additional basis functions. For production calculations,
  #  uncomment them one after another (the most important basis functions are
  #  listed first).
  #
  #  Constructed for dimers: 1.6 A, 1.9 A, 2.5 A, 3.25 A, 4.0 A
  #
  ################################################################################
  #  "First tier" - improvements: -652.81 meV to -45.53 meV
       ionic 3 d auto
       hydro 2 p 1.8
       hydro 4 f 7
       ionic 3 s auto
  #  "Second tier" - improvements: -30.20 meV to -1.74 meV
       hydro 4 d 6.2
       hydro 5 g 10.8
  #     hydro 4 p 4.9
  #     hydro 5 f 10
  #     hydro 1 s 0.8
  #  "Third tier" - improvements: -1.04 meV to -0.20 meV
  #     hydro 3 d 3.9
  #     hydro 3 d 2.7
  #     hydro 5 g 12
  #     hydro 4 p 10.4
  #     hydro 5 f 12.4
  #     hydro 2 s 1.9
  #  "Fourth tier" - improvements: -0.35 meV to -0.06 meV
  #     hydro 4 d 10.4
  #     hydro 4 p 7.2
  #     hydro 4 d 10
  #     hydro 5 g 19.2
  #     hydro 4 s 12
  
  ################################################################################
  #
  # For methods that use the localized form of the "resolution of identity" for
  # the two-electron Coulomb operator (RI_method LVL), particularly Hartree-Fock and
  # hybrid density functional calculations, the highest accuracy can be obtained by
  # uncommenting the line beginning with "for_aux"  below, thus adding an extra g radial
  # function to the construction of the product basis set for the expansion.
  # See Ref. New J. Phys. 17, 093020 (2015) for more information, particularly Figs. 1 and 6.
  #
  ################################################################################
  #
  # for_aux hydro 5 g 6.0
  ################################################################################
  #
  #  FHI-aims code project
  # Volker Blum, Fritz Haber Institute Berlin, 2009
  #
  #  Suggested "tight" defaults for Mo atom (to be pasted into control.in file)
  #
  ################################################################################
    species        Mo
  #     global species definitions
      nucleus             42
      mass                95.94
  #
      l_hartree           6
  #
      cut_pot             4.0  2.0  1.0
      basis_dep_cutoff    1e-4
  #
      radial_base         59 7.0
      radial_multiplier   2
      angular_grids specified
        division   0.3117   50
        division   0.6750  110
        division   1.0351  194
        division   1.2073  302
        division   1.6402  434
  #      division   1.9185  590
  #      division   2.0237  770
  #      division   2.0980  974
  #      division   2.7972 1202
  #      outer_grid  974
        outer_grid  434
  ################################################################################
  #
  #  Definition of "minimal" basis
  #
  ################################################################################
  #     valence basis states
      valence      5  s   1.
      valence      4  p   6.
      valence      4  d   5.
  #     ion occupancy
      ion_occ     5  s   0.
      ion_occ     4  p   6.
      ion_occ     4  d   4.
  ################################################################################
  #
  #  Suggested additional basis functions. For production calculations,
  #  uncomment them one after another (the most important basis functions are
  #  listed first).
  #
  #  Constructed for dimers: 1.675 A, 1.9 A, 2.375 A, 3.00 A, 4.00 A
  #
  ################################################################################
  #  "First tier"  - max. impr. -711.23  meV, min. impr. -21.07 meV
       hydro 4 f 8.4
       hydro 3 d 2.8
       ionic 5 p auto
       hydro 5 g 12
       ionic 5 s auto
  #  "Second tier" - max. impr. -39.38  meV, min. impr. -2.68 meV
  #     hydro 4 f 12.4
  #     hydro 3 d 3.3
  #     hydro 6 h 17.2
  #     hydro 4 f 7.6
  #     hydro 3 p 3.0
  #     hydro 1 s 0.65
  #  "Third tier"  - max. impr. -5.50 meV, min. impr. -0.47 meV
  #     hydro 4 f 29.2
  #     hydro 5 g 11.2
  #     hydro 3 d 6.8
  #     hydro 6 h 14.8
  #     hydro 2 p 2.3
  #     hydro 4 s 3.8
  #  "Fourth tier"  - max. impr. -0.58 meV, min. impr. -0.19 meV
  #     hydro 5 f 6.8
  #     hydro 5 d 14.8
  #     hydro 6 s 7.8
  #     hydro 5 g 20.8
  #     hydro 5 d 10.4
  #     hydro 5 p 9.8
  #  Further functions - -0.17 meV and below
  #     hydro 5 d 3.2
  compute_forces .true.
  final_forces_cleaned .true.
  
  -----------------------------------------------------------------------
  Completed first pass over input file control.in .
  -----------------------------------------------------------------------
  
  
  -----------------------------------------------------------------------
  Parsing geometry.in (first pass over file, find array dimensions only).
  The contents of geometry.in will be repeated verbatim below
  unless switched off by setting 'verbatim_writeout .false.' .
  in the first line of geometry.in .
  -----------------------------------------------------------------------
  
  #
  # temporary structure-file for finite-difference calculation of forces
  # displacement   0.0025 of \# atom     6 direction     1
  #
  atom    2.27440633    5.75999413    7.68131618   S
  atom    2.42735398    7.58687017    6.72038194   S
  atom    0.99871951    8.87882463    7.47815803   S
  atom   -0.65263509    8.87882678    6.23034087   S
  atom   -1.92833396    5.76000217    6.02718462   S
  atom   -0.80558319    4.46810248    7.19101927   S
  atom    1.15164835    4.47059954    6.51748154   S
  atom   -2.08127592    7.58688011    6.98811755   S
  
  -----------------------------------------------------------------------
  Completed first pass over input file geometry.in .
  -----------------------------------------------------------------------
  

  Basic array size parameters:
  | Number of species                 :        2
  | Number of atoms                   :        8
  | Max. basis fn. angular momentum   :        4
  | Max. atomic/ionic basis occupied n:        5
  | Max. number of basis fn. types    :        3
  | Max. radial fns per species/type  :       10
  | Max. logarithmic grid size        :     1436
  | Max. radial integration grid size :      119
  | Max. angular integration grid size:      434
  | Max. angular grid division number :        8
  | Radial grid for Hartree potential :     1436
  | Number of spin channels           :        1

------------------------------------------------------------
          Reading file control.in.
------------------------------------------------------------
  XC: Using PBE gradient-corrected functionals.
  Spin treatment: No spin polarisation.
  Charge =   0.000000E+00: Neutral system requested explicitly.
  Scalar relativistic treatment of kinetic energy: on-site free-atom approximation to ZORA.
  Using pulay charge density mixing.
  Pulay mixing - number of memorized iterations:   12
  Charge density mixing - mixing parameter:     0.1000
 
  Reading configuration options for species S                   .
  | Found nuclear charge :  16.0000
  | Found atomic mass :    32.0650000000000      amu
  | Found l_max for Hartree potential  :   6
  | Found cutoff potl. onset [A], width [A], scale factor :    4.00000    2.00000    1.00000
  | Threshold for basis-dependent cutoff potential is   0.100000E-03
  | Found data for basic radial integration grid :    44 points, outermost radius =    7.000 A
  | Found multiplier for basic radial grid :   2
  | Found angular grid specification: user-specified.
  | Specified grid contains     5 separate shells.
  | Check grid settings after all constraints further below.
  | Found free-atom valence shell :  3 s   2.000
  | Found free-atom valence shell :  3 p   4.000
  | Found free-ion valence shell :  3 s   1.000
  | Found free-ion valence shell :  3 p   3.000
  | Found ionic basis function :  3 d , default cutoff radius.
  | Found hydrogenic basis function :  2 p   1.800
  | Found hydrogenic basis function :  4 f   7.000
  | Found ionic basis function :  3 s , default cutoff radius.
  | Found hydrogenic basis function :  4 d   6.200
  | Found hydrogenic basis function :  5 g  10.800
  Species S                   : Missing cutoff potential type.
  Defaulting to exp(1/x)/(1-x)^2 type cutoff potential.
  Species S : No 'logarithmic' tag. Using default grid for free atom:
  | Default logarithmic grid data [bohr] : 0.1000E-03 0.1000E+03 0.1012E+01
  | Will include ionic basis functions of  2.0-fold positive S                    ion.
  Species S : On-site basis accuracy parameter (for Gram-Schmidt orthonormalisation) not specified.
  Using default value basis_acc =  0.1000000E-03.
  Species S                   : Using default innermost maximum threshold i_radial=  2 for radial functions.
  Species S                   : Default cutoff onset for free atom density etc. : 0.40000000E+01 AA.
  Species S                   : Basic radial grid will be enhanced according to radial_multiplier =   2, to contain    89 grid points.
 
  Reading configuration options for species Mo                  .
  | Found nuclear charge :  42.0000
  | Found atomic mass :    95.9400000000000      amu
  | Found l_max for Hartree potential  :   6
  | Found cutoff potl. onset [A], width [A], scale factor :    4.00000    2.00000    1.00000
  | Threshold for basis-dependent cutoff potential is   0.100000E-03
  | Found data for basic radial integration grid :    59 points, outermost radius =    7.000 A
  | Found multiplier for basic radial grid :   2
  | Found angular grid specification: user-specified.
  | Specified grid contains     6 separate shells.
  | Check grid settings after all constraints further below.
  | Found free-atom valence shell :  5 s   1.000
  | Found free-atom valence shell :  4 p   6.000
  | Found free-atom valence shell :  4 d   5.000
  | Found free-ion valence shell :  5 s   0.000
  | Found free-ion valence shell :  4 p   6.000
  | Found free-ion valence shell :  4 d   4.000
  | Found hydrogenic basis function :  4 f   8.400
  | Found hydrogenic basis function :  3 d   2.800
  | Found ionic basis function :  5 p , default cutoff radius.
  | Found hydrogenic basis function :  5 g  12.000
  | Found ionic basis function :  5 s , default cutoff radius.
  Species Mo                  : Missing cutoff potential type.
  Defaulting to exp(1/x)/(1-x)^2 type cutoff potential.
  Species Mo: No 'logarithmic' tag. Using default grid for free atom:
  | Default logarithmic grid data [bohr] : 0.1000E-03 0.1000E+03 0.1012E+01
  | Will include ionic basis functions of  2.0-fold positive Mo                   ion.
  Species Mo: On-site basis accuracy parameter (for Gram-Schmidt orthonormalisation) not specified.
  Using default value basis_acc =  0.1000000E-03.
  Species Mo                  : Using default innermost maximum threshold i_radial=  2 for radial functions.
  Species Mo                  : Default cutoff onset for free atom density etc. : 0.40000000E+01 AA.
  Species Mo                  : Basic radial grid will be enhanced according to radial_multiplier =   2, to contain   119 grid points.
  Forces will be computed.
  Cleaning forces before final output.
 
  Finished reading input file 'control.in'.
 
------------------------------------------------------------


------------------------------------------------------------
          Reading geometry description geometry.in.
------------------------------------------------------------
  | The smallest distance between any two atoms is         2.06824441 AA.
  | The first atom of this pair is atom number                      1 .
  | The second atom of this pair is atom number                     7 .
  Input structure read successfully.
  The structure contains        8 atoms,  and a total of        128.000 electrons.

  Input geometry:
  | No unit cell requested.
  | Atomic structure:
  |       Atom                x [A]            y [A]            z [A]
  |    1: Species S             2.27440633        5.75999413        7.68131618
  |    2: Species S             2.42735398        7.58687017        6.72038194
  |    3: Species S             0.99871951        8.87882463        7.47815803
  |    4: Species S            -0.65263509        8.87882678        6.23034087
  |    5: Species S            -1.92833396        5.76000217        6.02718462
  |    6: Species S            -0.80558319        4.46810248        7.19101927
  |    7: Species S             1.15164835        4.47059954        6.51748154
  |    8: Species S            -2.08127592        7.58688011        6.98811755

 
  Finished reading input file 'control.in'.
 

------------------------------------------------------------
          Reading geometry description geometry.in.
------------------------------------------------------------
 
  Consistency checks for stacksize environment parameter are next.
 
  | Maximum stacksize for task 0: unlimited
  | Maximum stacksize for task 1: unlimited
  | Maximum stacksize for task 2: unlimited
  | Maximum stacksize for task 3: unlimited
  | Maximum stacksize for task 4: unlimited
  | Maximum stacksize for task 5: unlimited
  | Maximum stacksize for task 6: unlimited
  | Maximum stacksize for task 7: unlimited
  | Maximum stacksize for task 8: unlimited
  | Maximum stacksize for task 9: unlimited
  | Maximum stacksize for task 10: unlimited
  | Maximum stacksize for task 11: unlimited
  | Maximum stacksize for task 12: unlimited
  | Maximum stacksize for task 13: unlimited
  | Maximum stacksize for task 14: unlimited
  | Maximum stacksize for task 15: unlimited
  | Maximum stacksize for task 16: unlimited
  | Maximum stacksize for task 17: unlimited
  | Maximum stacksize for task 18: unlimited
  | Maximum stacksize for task 19: unlimited
  | Maximum stacksize for task 20: unlimited
  | Maximum stacksize for task 21: unlimited
  | Maximum stacksize for task 22: unlimited
  | Maximum stacksize for task 23: unlimited
  | Maximum stacksize for task 24: unlimited
  | Maximum stacksize for task 25: unlimited
  | Maximum stacksize for task 26: unlimited
  | Maximum stacksize for task 27: unlimited
  | Maximum stacksize for task 28: unlimited
  | Maximum stacksize for task 29: unlimited
  | Maximum stacksize for task 30: unlimited
  | Maximum stacksize for task 31: unlimited
  | Maximum stacksize for task 32: unlimited
  | Maximum stacksize for task 33: unlimited
  | Maximum stacksize for task 34: unlimited
  | Maximum stacksize for task 35: unlimited
  | Maximum stacksize for task 36: unlimited
  | Maximum stacksize for task 37: unlimited
  | Maximum stacksize for task 38: unlimited
  | Maximum stacksize for task 39: unlimited
  | Current stacksize for task 0: unlimited
  | Current stacksize for task 1: unlimited
  | Current stacksize for task 2: unlimited
  | Current stacksize for task 3: unlimited
  | Current stacksize for task 4: unlimited
  | Current stacksize for task 5: unlimited
  | Current stacksize for task 6: unlimited
  | Current stacksize for task 7: unlimited
  | Current stacksize for task 8: unlimited
  | Current stacksize for task 9: unlimited
  | Current stacksize for task 10: unlimited
  | Current stacksize for task 11: unlimited
  | Current stacksize for task 12: unlimited
  | Current stacksize for task 13: unlimited
  | Current stacksize for task 14: unlimited
  | Current stacksize for task 15: unlimited
  | Current stacksize for task 16: unlimited
  | Current stacksize for task 17: unlimited
  | Current stacksize for task 18: unlimited
  | Current stacksize for task 19: unlimited
  | Current stacksize for task 20: unlimited
  | Current stacksize for task 21: unlimited
  | Current stacksize for task 22: unlimited
  | Current stacksize for task 23: unlimited
  | Current stacksize for task 24: unlimited
  | Current stacksize for task 25: unlimited
  | Current stacksize for task 26: unlimited
  | Current stacksize for task 27: unlimited
  | Current stacksize for task 28: unlimited
  | Current stacksize for task 29: unlimited
  | Current stacksize for task 30: unlimited
  | Current stacksize for task 31: unlimited
  | Current stacksize for task 32: unlimited
  | Current stacksize for task 33: unlimited
  | Current stacksize for task 34: unlimited
  | Current stacksize for task 35: unlimited
  | Current stacksize for task 36: unlimited
  | Current stacksize for task 37: unlimited
  | Current stacksize for task 38: unlimited
  | Current stacksize for task 39: unlimited
 
  Consistency checks for the contents of control.in are next.
 
  MPI_IN_PLACE appears to work with this MPI implementation.
  | Keeping use_mpi_in_place .true. (see manual).
  Target number of points in a grid batch is not set. Defaulting to  100
  Method for grid partitioning is not set. Defaulting to parallel hash+maxmin partitioning.
  Batch size limit is not set. Defaulting to    200
  By default, will store active basis functions for each batch.
  If in need of memory, prune_basis_once .false. can be used to disable this option.
  communication_type for Hartree potential was not specified.
  Defaulting to calc_hartree .
  Pulay mixer: Number of initial linear mixing iterations not set.
  Defaulting to    0 iterations.
  Work space size for distributed Hartree potential not set.
  Defaulting to   0.200000E+03 MB.
  Algorithm-dependent basis array size parameters:
  | n_max_pulay                         :       12
  Maximum number of self-consistency iterations not provided.
  Presetting  1000 iterations.
  Presetting      1001 iterations before the initial mixing cycle
  is restarted anyway using the sc_init_iter criterion / keyword.
  Presetting a factor      1.000 between actual scf density residual
  and density convergence criterion sc_accuracy_rho below which sc_init_iter
  takes no effect.
 * No s.c.f. convergence criteria (sc_accuracy_*) were provided in control.in.
 * The run will proceed with a reasonable default guess, but please check whether.
 * the s.c.f. cycles seem to take too much or too little time.
  Geometry relaxation not requested: no relaxation will be performed.
  Forces evaluation will include force correction term due to incomplete self-consistency (default).
 * Notice: The s.c.f. convergence criterion sc_accuracy_rho was not provided.
 * We used to stop in this case, and ask the user to provide reasonable
 * scf convergence criteria. However, this led some users to employ criteria
 * that led to extremely long run times, e.g., for simple relaxation.
 * We now preset a default value for sc_accuracy_rho if it is not set.
 * You may still wish to check if this setting is too tight or too loose for your needs.
 * Based on n_atoms and forces and force-correction status, FHI-aims chose sc_accuracy_rho =  0.923760E-05 .
  Force calculation: scf convergence accuracy of forces not set.
  Defaulting to 'sc_accuracy_forces not_checked'.
  Handling of forces: Unphysical translation and rotation will be removed from forces.
  No accuracy limit for integral partition fn. given. Defaulting to  0.1000E-14.
  No threshold value for u(r) in integrations given. Defaulting to  0.1000E-05.
  No occupation type (smearing scheme) given. Defaulting to Gaussian broadening, width =  0.1000E-01 eV.
  The width will be adjusted in iteration number     2 of the first full s.c.f. cycle only.
  S.C.F. convergence parameters will be adjusted in iteration number     2 of the first full s.c.f. cycle only.
  No accuracy for occupation numbers given. Defaulting to  0.1000E-12.
  No threshold value for occupation numbers given. Defaulting to  0.0000E+00.
  No accuracy for fermi level given. Defaulting to  0.1000E-19.
  Maximum # of iterations to find E_F not set. Defaulting to  200.
  Preferred method for the eigenvalue solver ('KS_method') not specified in 'control.in'.
  Calling BLACS routine to test compilation state
  Since ScaLAPACK support is enabled, defaulting to ELPA (via ELSI).
  Will not use alltoall communication since running on < 1024 CPUs.
  Threshold for basis singularities not set.
  Default threshold for basis singularities:  0.1000E-04
  partition_type (choice of integration weights) for integrals was not specified.
  | Using a version of the partition function of Stratmann and coworkers ('stratmann_sparse').
  | At each grid point, the set of atoms used to build the partition table is smoothly restricted to
  | only those atoms whose free-atom density would be non-zero at that grid point.
  Partitioning for Hartree potential was not defined. Using partition_type for integrals.
  | Adjusted default value of keyword multip_moments_threshold to:       0.10000000E-11
  | This value may affect high angular momentum components of the Hartree potential in periodic systems.
  No q(lm)/r^(l+1) cutoff set for long-range Hartree potential.
  | Using default value of  0.100000E-09 .
  | Verify using the multipole_threshold keyword.
  Defaulting to new monopole extrapolation.
  Density update method: automatic selection selected.
  Charge integration errors on the 3D integration grid will be compensated
  by explicit normalization and distribution of residual charges.
  Use the "compensate_multipole_errors" flag to change this behaviour.
  Set 'collect_eigenvectors' to be '.true.' for use_density_matrix .false.
 
  Consistency checks for the contents of geometry.in are next.
 
  Number of empty states per atom not set in control.in - providing a guess from actual geometry.
  | Total number of empty states used during s.c.f. cycle:       24
  If you use a very high smearing, use empty_states (per atom!) in control.in to increase this value.

  Structure-dependent array size parameters: 
  | Maximum number of distinct radial functions  :       26
  | Maximum number of basis functions            :      312
  | Number of Kohn-Sham states (occupied + empty):       88
------------------------------------------------------------

------------------------------------------------------------
          Preparing all fixed parts of the calculation.
------------------------------------------------------------
  Determining machine precision:
    2.225073858507201E-308
  Setting up grids for atomic and cluster calculations.

  Creating wave function, potential, and density for free atoms.

  Species: S

  List of occupied orbitals and eigenvalues:
    n    l              occ      energy [Ha]    energy [eV]
    1    0           2.0000       -88.680731     -2413.1255
    2    0           2.0000        -7.781719      -211.7513
    3    0           2.0000        -0.633662       -17.2428
    2    1           6.0000        -5.751976      -156.5192
    3    1           4.0000        -0.257086        -6.9957


  Species: Mo

  List of occupied orbitals and eigenvalues:
    n    l              occ      energy [Ha]    energy [eV]
    1    0           2.0000      -745.344654    -20281.8600
    2    0           2.0000      -103.288246     -2810.6162
    3    0           2.0000       -17.516687      -476.6533
    4    0           2.0000        -2.358559       -64.1796
    5    0           1.0000        -0.145159        -3.9500
    2    1           6.0000       -92.308627     -2511.8455
    3    1           6.0000       -13.936005      -379.2180
    4    1           6.0000        -1.408138       -38.3174
    3    2          10.0000        -8.119011      -220.9295
    4    2           5.0000        -0.132984        -3.6187


  Adding cutoff potential to free-atom effective potential.
  Creating fixed part of basis set: Ionic, confined, hydrogenic.
 
  S                    ion:

  List of free ionic orbitals and eigenvalues:
    n    l      energy [Ha]    energy [eV]
    1    0       -89.703778     -2440.9640
    2    0        -8.775428      -238.7916
    3    0        -1.470343       -40.0101
    2    1        -6.747660      -183.6132
    3    1        -1.048627       -28.5346


  List of ionic basis orbitals and eigenvalues:
    n    l      energy [Ha]    energy [eV]    outer radius [A]
    3    2        -0.495605       -13.4861       5.386362
    3    0        -1.470336       -40.0099       3.967934

 
  S                    hydrogenic:
 
  List of hydrogenic basis orbitals: 
    n    l      effective z      eigenvalue [eV]  inner max. [A]     outer max. [A]     outer radius [A]   
    2    1         1.800000       -11.0118           1.168531           1.168531           5.452614
    4    3         7.000000       -41.6672           1.212182           1.212182           5.066981
    4    2         6.200000       -32.6848           0.582121           1.814567           5.386362
    5    4        10.800000       -63.4785           1.227092           1.227092           4.766538
 
 
  Mo                   ion:

  List of free ionic orbitals and eigenvalues:
    n    l      energy [Ha]    energy [eV]
    1    0      -746.048685    -20301.0176
    2    0      -103.980912     -2829.4646
    3    0       -18.206601      -495.4268
    4    0        -3.040545       -82.7374
    2    1       -93.001013     -2530.6863
    3    1       -14.625827      -397.9890
    4    1        -2.084855       -56.7318
    3    2        -8.808854      -239.7011
    4    2        -0.765435       -20.8285


  List of ionic basis orbitals and eigenvalues:
    n    l      energy [Ha]    energy [eV]    outer radius [A]
    5    1        -0.465587       -12.6693       5.456393
    5    0        -0.650331       -17.6964       5.390095

 
  Mo                   hydrogenic:
 
  List of hydrogenic basis orbitals: 
    n    l      effective z      eigenvalue [eV]  inner max. [A]     outer max. [A]     outer radius [A]   
    4    3         8.400000       -60.0010           1.009788           1.009788           4.487018
    3    2         2.800000       -11.8048           1.687401           1.687401           5.456393
    5    4        12.000000       -78.3687           1.100005           1.100005           4.432498
 
  Creating atomic-like basis functions for current effective potential.

  Species S                   :

  List of atomic basis orbitals and eigenvalues:
    n    l      energy [Ha]    energy [eV]    outer radius [A]
    1    0       -88.680731     -2413.1255       0.682391
    2    0        -7.781719      -211.7513       2.289014
    3    0        -0.633662       -17.2428       5.256262
    2    1        -5.751976      -156.5192       2.555240
    3    1        -0.257086        -6.9957       5.386362


  Species Mo                  :

  List of atomic basis orbitals and eigenvalues:
    n    l      energy [Ha]    energy [eV]    outer radius [A]
    1    0      -745.344654    -20281.8600       0.247552
    2    0      -103.288246     -2810.6162       0.682864
    3    0       -17.516687      -476.6533       1.626637
    4    0        -2.358559       -64.1796       4.220963
    5    0        -0.145159        -3.9500       5.456393
    2    1       -92.308627     -2511.8455       0.699766
    3    1       -13.936005      -379.2180       1.793761
    4    1        -1.408138       -38.3174       4.828511
    3    2        -8.119011      -220.9295       2.181285
    4    2        -0.132984        -3.6187       5.390095

  Assembling full basis from fixed parts.
  | Species S :   atomic orbital   1 s accepted.
  | Species S :   atomic orbital   2 s accepted.
  | Species S :    ionic orbital   3 s accepted.
  | Species S :   atomic orbital   3 s accepted.
  | Species S :   atomic orbital   2 p accepted.
  | Species S :   atomic orbital   3 p accepted.
  | Species S :    hydro orbital   2 p accepted.
  | Species S :    ionic orbital   3 d accepted.
  | Species S :    hydro orbital   4 d accepted.
  | Species S :    hydro orbital   4 f accepted.
  | Species S :    hydro orbital   5 g accepted.
  | Species Mo :   atomic orbital   1 s accepted.
  | Species Mo :   atomic orbital   2 s accepted.
  | Species Mo :   atomic orbital   3 s accepted.
  | Species Mo :   atomic orbital   4 s accepted.
  | Species Mo :    ionic orbital   5 s accepted.
  | Species Mo :   atomic orbital   5 s accepted.
  | Species Mo :   atomic orbital   2 p accepted.
  | Species Mo :   atomic orbital   3 p accepted.
  | Species Mo :   atomic orbital   4 p accepted.
  | Species Mo :    ionic orbital   5 p accepted.
  | Species Mo :   atomic orbital   3 d accepted.
  | Species Mo :   atomic orbital   4 d accepted.
  | Species Mo :    hydro orbital   3 d accepted.
  | Species Mo :    hydro orbital   4 f accepted.
  | Species Mo :    hydro orbital   5 g accepted.
 
  Basis size parameters after reduction:
  | Total number of radial functions:       26
  | Total number of basis functions :      312
 
  Per-task memory consumption for arrays in subroutine allocate_ext:
  |           9.566776MB.
  Testing on-site integration grid accuracy.
  |  Species  Function  <phi|h_atom|phi> (log., in eV)  <phi|h_atom|phi> (rad., in eV)
           1        1              -2413.1254568977              -2413.1254096663
           1        2               -211.7513411281               -211.7513404762
           1        3                -16.9725280787                -16.9725279206
           1        4                  7.6024436204                  7.6024549059
           1        5               -156.5192206929               -156.5192205451
           1        6                 -6.9959757887                 -6.9959777655
           1        7                  6.8896462808                  6.8895564741
           1        8                  6.0214250550                  6.0214220200
           1        9                 19.6206468977                 19.6206494558
           1       10                 24.7008710786                 24.7008710738
           1       11                 47.5292252001                 47.5292260486
           2       12             -20281.8599610543             -20281.8584300616
           2       13              -2810.6161812280              -2810.6161551921
           2       14               -476.6533163555               -476.6533136395
           2       15                -64.1796433667                -64.1796426456
           2       16                 -3.3691762756                 -3.3691802887
           2       17                  4.4704608512                  4.4699102345
           2       18              -2511.8455406047              -2511.8455385741
           2       19               -379.2179896350               -379.2179882338
           2       20                -38.3173891619                -38.3173886619
           2       21                  0.2493245095                  0.2492931069
           2       22               -220.9295301098               -220.9295297081
           2       23                 -3.6195697699                 -3.6195754704
           2       24                  7.1428000922                  7.1426882355
           2       25                 23.3975871087                 23.3975871819
           2       26                 50.2449608881                 50.2449608586

  Preparing densities etc. for the partition functions (integrals / Hartree potential).

  Preparations completed.
  max(cpu_time)          :      0.435 s.
  Wall clock time (cpu1) :      0.444 s.
------------------------------------------------------------

------------------------------------------------------------
          Begin self-consistency loop: Initialization.

          Date     :  20210628, Time     :  160659.841
------------------------------------------------------------

  Initializing index lists of integration centers etc. from given atomic structure:
  | Number of centers in hartree potential         :         8
  | Number of centers in hartree multipole         :         8
  | Number of centers in electron density summation:         8
  | Number of centers in basis integrals           :         8
  | Number of centers in integrals                 :         8
  | Number of centers in hamiltonian               :         8
  * Using 40 tasks for Scalapack Eigenvalue solver.
  Detailed listing of tasks and assigned k-points:
  (for non-periodic systems, the "k-point" denotes an internal label only)
   Task     0 k-point     1 on co2258
   Task     1 k-point     1 on co2258
   Task     2 k-point     1 on co2258
   Task     3 k-point     1 on co2258
   Task     4 k-point     1 on co2258
   Task     5 k-point     1 on co2258
   Task     6 k-point     1 on co2258
   Task     7 k-point     1 on co2258
   Task     8 k-point     1 on co2258
   Task     9 k-point     1 on co2258
   Task    10 k-point     1 on co2258
   Task    11 k-point     1 on co2258
   Task    12 k-point     1 on co2258
   Task    13 k-point     1 on co2258
   Task    14 k-point     1 on co2258
   Task    15 k-point     1 on co2258
   Task    16 k-point     1 on co2258
   Task    17 k-point     1 on co2258
   Task    18 k-point     1 on co2258
   Task    19 k-point     1 on co2258
   Task    20 k-point     1 on co2258
   Task    21 k-point     1 on co2258
   Task    22 k-point     1 on co2258
   Task    23 k-point     1 on co2258
   Task    24 k-point     1 on co2258
   Task    25 k-point     1 on co2258
   Task    26 k-point     1 on co2258
   Task    27 k-point     1 on co2258
   Task    28 k-point     1 on co2258
   Task    29 k-point     1 on co2258
   Task    30 k-point     1 on co2258
   Task    31 k-point     1 on co2258
   Task    32 k-point     1 on co2258
   Task    33 k-point     1 on co2258
   Task    34 k-point     1 on co2258
   Task    35 k-point     1 on co2258
   Task    36 k-point     1 on co2258
   Task    37 k-point     1 on co2258
   Task    38 k-point     1 on co2258
   Task    39 k-point     1 on co2258
  Tasks:    40 split into      8 X      5 BLACS grid
  Calculating block size based on n_basis =          312  max_nprow =            8  max_npcol =            5
  ScaLAPACK block size set to:           16
  Allocating        0.023 MB for ovlp
  Allocating        0.023 MB for ham
  Allocating        0.023 MB for eigenvec
  Required Scalapack workspace - INTEGER:            1  REAL:             1
  Partitioning the integration grid into batches with parallel hashing+maxmin method.
  | Number of batches:     2321
  | Maximal batch size:     200
  | Minimal batch size:      22
  | Average batch size:      84.453
  | Standard deviation of batch sizes:      20.918

  Integration load balanced across    40 MPI tasks.
  Work distribution over tasks is as follows:
  Task     0 has       4883 integration points.
  Task     1 has       4929 integration points.
  Task     2 has       4927 integration points.
  Task     3 has       4879 integration points.
  Task     4 has       4972 integration points.
  Task     5 has       4834 integration points.
  Task     6 has       4938 integration points.
  Task     7 has       4929 integration points.
  Task     8 has       4858 integration points.
  Task     9 has       4929 integration points.
  Task    10 has       4942 integration points.
  Task    11 has       4830 integration points.
  Task    12 has       4968 integration points.
  Task    13 has       4925 integration points.
  Task    14 has       4932 integration points.
  Task    15 has       4829 integration points.
  Task    16 has       4935 integration points.
  Task    17 has       4856 integration points.
  Task    18 has       4932 integration points.
  Task    19 has       4845 integration points.
  Task    20 has       4881 integration points.
  Task    21 has       4849 integration points.
  Task    22 has       4846 integration points.
  Task    23 has       4830 integration points.
  Task    24 has       4946 integration points.
  Task    25 has       4887 integration points.
  Task    26 has       4843 integration points.
  Task    27 has       4860 integration points.
  Task    28 has       4929 integration points.
  Task    29 has       4840 integration points.
  Task    30 has       4926 integration points.
  Task    31 has       4931 integration points.
  Task    32 has       4857 integration points.
  Task    33 has       4960 integration points.
  Task    34 has       4881 integration points.
  Task    35 has       4904 integration points.
  Task    36 has       4934 integration points.
  Task    37 has       4964 integration points.
  Task    38 has       4936 integration points.
  Task    39 has       4940 integration points.
  Initializing partition tables, free-atom densities, potentials, etc. across the integration grid (initialize_grid_storage).
  | initialize_grid_storage: Actual outermost partition radius vs. multipole_radius_free
  | (-- VB: in principle, multipole_radius_free should be larger, hence this output)
  | Species        1: Confinement radius =              6.000000000000000 AA, multipole_radius_free =              6.012827091137924 AA.
  | Species        1: outer_partition_radius set to              6.012827091137924 AA .
  | Species        2: Confinement radius =              6.000000000000000 AA, multipole_radius_free =              6.016994434057369 AA.
  | Species        2: outer_partition_radius set to              6.016994434057369 AA .
  | The sparse table of interatomic distances needs          0.71 kbyte instead of         0.51 kbyte of memory.
  | Using the partition_type stratmann_smoother will reduce your memory usage.
  | Net number of integration points:   196016
  | of which are non-zero points    :   181186
  Renormalizing the initial density to the exact electron count on the 3D integration grid.
  | Initial density: Formal number of electrons (from input files) :     128.0000000000
  | Integrated number of electrons on 3D grid     :     127.9999792383
  | Charge integration error                      :      -0.0000207617
  | Normalization factor for density and gradient :       1.0000001622
  Renormalizing the free-atom superposition density to the exact electron count on the 3D integration grid.
  | Formal number of electrons (from input files) :     128.0000000000
  | Integrated number of electrons on 3D grid     :     127.9999792383
  | Charge integration error                      :      -0.0000207617
  | Normalization factor for density and gradient :       1.0000001622
  Obtaining max. number of non-zero basis functions in each batch (get_n_compute_maxes).
  | Maximal number of non-zero basis functions:      304 in task     0
  | Maximal number of non-zero basis functions:      299 in task     1
  | Maximal number of non-zero basis functions:      299 in task     2
  | Maximal number of non-zero basis functions:      303 in task     3
  | Maximal number of non-zero basis functions:      302 in task     4
  | Maximal number of non-zero basis functions:      298 in task     5
  | Maximal number of non-zero basis functions:      295 in task     6
  | Maximal number of non-zero basis functions:      295 in task     7
  | Maximal number of non-zero basis functions:      292 in task     8
  | Maximal number of non-zero basis functions:      304 in task     9
  | Maximal number of non-zero basis functions:      303 in task    10
  | Maximal number of non-zero basis functions:      302 in task    11
  | Maximal number of non-zero basis functions:      298 in task    12
  | Maximal number of non-zero basis functions:      301 in task    13
  | Maximal number of non-zero basis functions:      303 in task    14
  | Maximal number of non-zero basis functions:      298 in task    15
  | Maximal number of non-zero basis functions:      293 in task    16
  | Maximal number of non-zero basis functions:      298 in task    17
  | Maximal number of non-zero basis functions:      298 in task    18
  | Maximal number of non-zero basis functions:      304 in task    19
  | Maximal number of non-zero basis functions:      295 in task    20
  | Maximal number of non-zero basis functions:      302 in task    21
  | Maximal number of non-zero basis functions:      304 in task    22
  | Maximal number of non-zero basis functions:      304 in task    23
  | Maximal number of non-zero basis functions:      298 in task    24
  | Maximal number of non-zero basis functions:      304 in task    25
  | Maximal number of non-zero basis functions:      297 in task    26
  | Maximal number of non-zero basis functions:      300 in task    27
  | Maximal number of non-zero basis functions:      302 in task    28
  | Maximal number of non-zero basis functions:      302 in task    29
  | Maximal number of non-zero basis functions:      292 in task    30
  | Maximal number of non-zero basis functions:      298 in task    31
  | Maximal number of non-zero basis functions:      303 in task    32
  | Maximal number of non-zero basis functions:      300 in task    33
  | Maximal number of non-zero basis functions:      299 in task    34
  | Maximal number of non-zero basis functions:      302 in task    35
  | Maximal number of non-zero basis functions:      292 in task    36
  | Maximal number of non-zero basis functions:      302 in task    37
  | Maximal number of non-zero basis functions:      294 in task    38
  | Maximal number of non-zero basis functions:      297 in task    39
  Selecting the method for density update.
  Loop over occupied states selected for charge density update.
  Allocating        0.209 MB for KS_eigenvector
  Integrating Hamiltonian matrix: batch-based integration.
  Time summed over all CPUs for integration: real work        2.381 s, elapsed        2.493 s
  Integrating overlap matrix.
  Time summed over all CPUs for integration: real work        0.912 s, elapsed        0.967 s
  Deallocating overlap matrix.

  Updating Kohn-Sham eigenvalues and eigenvectors using ELSI and the ELPA eigensolver.
  Overlap matrix is not singular
  | Lowest and highest eigenvalues :  0.4523E-03,  0.4895E+01
  Finished singularity check of overlap matrix
  | Time :     0.011 s
  Starting ELPA eigensolver
  Finished Cholesky decomposition
  | Time :     0.004 s
  Finished transformation to standard eigenproblem
  | Time :     0.003 s
  Finished solving standard eigenproblem
  | Time :     0.009 s
  Finished back-transformation of eigenvectors
  | Time :     0.001 s

  Obtaining occupation numbers and chemical potential using ELSI.
  | Chemical potential (Fermi level):    -5.59844489 eV
  Writing Kohn-Sham eigenvalues.

  State    Occupation    Eigenvalue [Ha]    Eigenvalue [eV]
      1       2.00000         -88.694271        -2413.49391
      2       2.00000         -88.694271        -2413.49391
      3       2.00000         -88.694234        -2413.49290
      4       2.00000         -88.694234        -2413.49289
      5       2.00000         -88.694234        -2413.49289
      6       2.00000         -88.694233        -2413.49287
      7       2.00000         -88.694233        -2413.49287
      8       2.00000         -88.694232        -2413.49285
      9       2.00000          -7.797414         -212.17843
     10       2.00000          -7.797383         -212.17759
     11       2.00000          -7.797379         -212.17747
     12       2.00000          -7.797362         -212.17701
     13       2.00000          -7.797350         -212.17670
     14       2.00000          -7.797331         -212.17617
     15       2.00000          -7.797320         -212.17587
     16       2.00000          -7.797310         -212.17560
     17       2.00000          -5.768594         -156.97142
     18       2.00000          -5.768547         -156.97016
     19       2.00000          -5.768536         -156.96985
     20       2.00000          -5.768438         -156.96720
     21       2.00000          -5.768434         -156.96708
     22       2.00000          -5.768325         -156.96410
     23       2.00000          -5.768308         -156.96366
     24       2.00000          -5.768258         -156.96230
     25       2.00000          -5.767478         -156.94106
     26       2.00000          -5.767439         -156.94001
     27       2.00000          -5.767432         -156.93982
     28       2.00000          -5.767381         -156.93841
     29       2.00000          -5.767372         -156.93818
     30       2.00000          -5.767332         -156.93709
     31       2.00000          -5.767318         -156.93669
     32       2.00000          -5.767301         -156.93626
     33       2.00000          -5.766400         -156.91173
     34       2.00000          -5.766398         -156.91167
     35       2.00000          -5.766361         -156.91066
     36       2.00000          -5.766361         -156.91065
     37       2.00000          -5.766359         -156.91062
     38       2.00000          -5.766358         -156.91059
     39       2.00000          -5.766358         -156.91058
     40       2.00000          -5.766357         -156.91055
     41       2.00000          -0.821164          -22.34500
     42       2.00000          -0.792389          -21.56201
     43       2.00000          -0.792258          -21.55844
     44       2.00000          -0.716231          -19.48963
     45       2.00000          -0.716103          -19.48616
     46       2.00000          -0.612743          -16.67359
     47       2.00000          -0.612640          -16.67079
     48       2.00000          -0.542772          -14.76958
     49       2.00000          -0.450013          -12.24548
     50       2.00000          -0.425038          -11.56588
     51       2.00000          -0.425019          -11.56535
     52       2.00000          -0.393032          -10.69494
     53       2.00000          -0.368064          -10.01554
     54       2.00000          -0.368007          -10.01397
     55       2.00000          -0.361714           -9.84275
     56       2.00000          -0.361669           -9.84151
     57       2.00000          -0.329838           -8.97535
     58       2.00000          -0.277614           -7.55427
     59       2.00000          -0.277595           -7.55375
     60       2.00000          -0.270366           -7.35702
     61       2.00000          -0.270300           -7.35524
     62       2.00000          -0.262912           -7.15421
     63       2.00000          -0.262856           -7.15268
     64       2.00000          -0.256798           -6.98784
     65       0.00000          -0.132803           -3.61375
     66       0.00000          -0.132746           -3.61220
     67       0.00000          -0.120120           -3.26862
     68       0.00000          -0.085814           -2.33513
     69       0.00000          -0.084625           -2.30277
     70       0.00000          -0.084569           -2.30123
     71       0.00000          -0.083082           -2.26078
     72       0.00000          -0.082963           -2.25754
     73       0.00000           0.028282            0.76958
     74       0.00000           0.049415            1.34464
     75       0.00000           0.049461            1.34590
     76       0.00000           0.064481            1.75463
     77       0.00000           0.064502            1.75518
     78       0.00000           0.079534            2.16424
     79       0.00000           0.079558            2.16489
     80       0.00000           0.091412            2.48745
     81       0.00000           0.093517            2.54473
     82       0.00000           0.093664            2.54874
     83       0.00000           0.114833            3.12476
     84       0.00000           0.117741            3.20388
     85       0.00000           0.117751            3.20416
     86       0.00000           0.123072            3.34896
     87       0.00000           0.123127            3.35045
     88       0.00000           0.141275            3.84428

  Highest occupied state (VBM) at     -6.98784178 eV
  | Occupation number:      2.00000000

  Lowest unoccupied state (CBM) at    -3.61374920 eV
  | Occupation number:      0.00000000

  Overall HOMO-LUMO gap:      3.37409258 eV.
  Calculating total energy contributions from superposition of free atom densities.

  Total energy components:
  | Sum of eigenvalues            :       -1842.63474372 Ha      -50140.64250440 eV
  | XC energy correction          :        -204.89736895 Ha       -5575.54108946 eV
  | XC potential correction       :         264.82081683 Ha        7206.14107033 eV
  | Free-atom electrostatic energy:       -1415.64503946 Ha      -38521.66148421 eV
  | Hartree energy correction     :           0.00000000 Ha           0.00000000 eV
  | Entropy correction            :           0.00000000 Ha           0.00000000 eV
  | ---------------------------
  | Total energy                  :       -3198.35633530 Ha      -87031.70400773 eV
  | Total energy, T -> 0          :       -3198.35633530 Ha      -87031.70400773 eV  <-- do not rely on this value for anything but (periodic) metals
  | Electronic free energy        :       -3198.35633530 Ha      -87031.70400773 eV

  Derived energy quantities:
  | Kinetic energy                :        3210.59252561 Ha       87364.66768718 eV
  | Electrostatic energy          :       -6204.05149196 Ha     -168820.83060546 eV
  | Energy correction for multipole
  | error in Hartree potential    :           0.00000000 Ha           0.00000000 eV
  | Sum of eigenvalues per atom                           :       -6267.58031305 eV
  | Total energy (T->0) per atom                          :      -10878.96300097 eV  <-- do not rely on this value for anything but (periodic) metals
  | Electronic free energy per atom                       :      -10878.96300097 eV
  Initialize hartree_potential_storage
  Max. number of atoms included in rho_multipole:            8

  End scf initialization - timings             :  max(cpu_time)    wall_clock(cpu1)
  | Time for scf. initialization               :        0.240 s           0.242 s
  | Boundary condition initialization          :        0.000 s           0.000 s
  | Integration                                :        0.091 s           0.091 s
  | Solution of K.-S. eqns.                    :        0.031 s           0.032 s
  | Grid partitioning                          :        0.089 s           0.089 s
  | Preloading free-atom quantities on grid    :        0.020 s           0.020 s
  | Free-atom superposition energy             :        0.006 s           0.006 s
  | Total energy evaluation                    :        0.000 s           0.000 s

  Partial memory accounting:
  | Current value for overall tracked memory usage:
  |   Minimum:        0.624 MB (on task 24)
  |   Maximum:        0.653 MB (on task  0)
  |   Average:        0.639 MB
  | Peak value for overall tracked memory usage:
  |   Minimum:        2.996 MB (on task 30 after allocating wave)
  |   Maximum:        3.129 MB (on task  0 after allocating wave)
  |   Average:        3.073 MB
  | Largest tracked array allocation so far:
  |   Minimum:        0.651 MB (hamiltonian_shell on task  8)
  |   Maximum:        0.916 MB (all_coords on task 22)
  |   Average:        0.706 MB
  Note:  These values currently only include a subset of arrays which are explicitly tracked.
  The "true" memory usage will be greater.
------------------------------------------------------------
  Evaluating new KS density.
  Integration grid: deviation in total charge (<rho> - N_e) =   5.684342E-14

  Time for density update prior                :  max(cpu_time)    wall_clock(cpu1)
  | self-consistency iterative process         :        0.049 s           0.050 s

------------------------------------------------------------
          Begin self-consistency iteration #    1

  Date     :  20210628, Time     :  160700.134
------------------------------------------------------------
  Pulay mixing of updated and previous charge densities.
  Renormalizing the density to the exact electron count on the 3D integration grid.
  | Formal number of electrons (from input files) :     128.0000000000
  | Integrated number of electrons on 3D grid     :     128.0000000000
  | Charge integration error                      :       0.0000000000
  | Normalization factor for density and gradient :       1.0000000000

  Evaluating partitioned Hartree potential by multipole expansion.
  | Original multipole sum: apparent total charge =   0.909660E-13
  | Sum of charges compensated after spline to logarithmic grids =   0.191624E-06
  | Analytical far-field extrapolation by fixed multipoles:
  | Hartree multipole sum: apparent total charge =   0.909656E-13
  Summing up the Hartree potential.
  Time summed over all CPUs for potential: real work        0.822 s, elapsed        0.850 s
  | RMS charge density error from multipole expansion :   0.575427E-03

  Integrating Hamiltonian matrix: batch-based integration.
  Time summed over all CPUs for integration: real work        2.317 s, elapsed        2.435 s

  Updating Kohn-Sham eigenvalues and eigenvectors using ELSI and the ELPA eigensolver.
  Starting ELPA eigensolver
  Finished transformation to standard eigenproblem
  | Time :     0.002 s
  Finished solving standard eigenproblem
  | Time :     0.008 s
  Finished back-transformation of eigenvectors
  | Time :     0.000 s

  Obtaining occupation numbers and chemical potential using ELSI.
  | Chemical potential (Fermi level):    -5.54408603 eV
  Writing Kohn-Sham eigenvalues.

  State    Occupation    Eigenvalue [Ha]    Eigenvalue [eV]
      1       2.00000         -88.690646        -2413.39528
      2       2.00000         -88.690614        -2413.39440
      3       2.00000         -88.690600        -2413.39401
      4       2.00000         -88.690599        -2413.39398
      5       2.00000         -88.690598        -2413.39397
      6       2.00000         -88.690598        -2413.39397
      7       2.00000         -88.690593        -2413.39383
      8       2.00000         -88.690584        -2413.39357
      9       2.00000          -7.793970         -212.08472
     10       2.00000          -7.793936         -212.08380
     11       2.00000          -7.793932         -212.08368
     12       2.00000          -7.793915         -212.08322
     13       2.00000          -7.793903         -212.08289
     14       2.00000          -7.793884         -212.08236
     15       2.00000          -7.793873         -212.08207
     16       2.00000          -7.793864         -212.08183
     17       2.00000          -5.765537         -156.88825
     18       2.00000          -5.765492         -156.88702
     19       2.00000          -5.765480         -156.88668
     20       2.00000          -5.765382         -156.88402
     21       2.00000          -5.765374         -156.88380
     22       2.00000          -5.765266         -156.88088
     23       2.00000          -5.765251         -156.88046
     24       2.00000          -5.765204         -156.87917
     25       2.00000          -5.764140         -156.85024
     26       2.00000          -5.764105         -156.84927
     27       2.00000          -5.764095         -156.84900
     28       2.00000          -5.764045         -156.84763
     29       2.00000          -5.764034         -156.84733
     30       2.00000          -5.763991         -156.84619
     31       2.00000          -5.763978         -156.84583
     32       2.00000          -5.763962         -156.84538
     33       2.00000          -5.762381         -156.80236
     34       2.00000          -5.762352         -156.80158
     35       2.00000          -5.762331         -156.80101
     36       2.00000          -5.762330         -156.80099
     37       2.00000          -5.762330         -156.80098
     38       2.00000          -5.762330         -156.80097
     39       2.00000          -5.762325         -156.80084
     40       2.00000          -5.762317         -156.80063
     41       2.00000          -0.818689          -22.27767
     42       2.00000          -0.789889          -21.49397
     43       2.00000          -0.789759          -21.49043
     44       2.00000          -0.713665          -19.41980
     45       2.00000          -0.713538          -19.41637
     46       2.00000          -0.610053          -16.60038
     47       2.00000          -0.609951          -16.59761
     48       2.00000          -0.539855          -14.69021
     49       2.00000          -0.447761          -12.18419
     50       2.00000          -0.422574          -11.49882
     51       2.00000          -0.422555          -11.49830
     52       2.00000          -0.390651          -10.63017
     53       2.00000          -0.365564           -9.94751
     54       2.00000          -0.365503           -9.94585
     55       2.00000          -0.359336           -9.77802
     56       2.00000          -0.359290           -9.77677
     57       2.00000          -0.327121           -8.90140
     58       2.00000          -0.274826           -7.47839
     59       2.00000          -0.274806           -7.47785
     60       2.00000          -0.267692           -7.28428
     61       2.00000          -0.267624           -7.28241
     62       2.00000          -0.260091           -7.07743
     63       2.00000          -0.260034           -7.07588
     64       2.00000          -0.254021           -6.91227
     65       0.00000          -0.130589           -3.55352
     66       0.00000          -0.130533           -3.55197
     67       0.00000          -0.117797           -3.20542
     68       0.00000          -0.083656           -2.27639
     69       0.00000          -0.082449           -2.24355
     70       0.00000          -0.082391           -2.24197
     71       0.00000          -0.080673           -2.19523
     72       0.00000          -0.080553           -2.19197
     73       0.00000           0.030257            0.82335
     74       0.00000           0.051389            1.39836
     75       0.00000           0.051434            1.39959
     76       0.00000           0.066281            1.80359
     77       0.00000           0.066301            1.80413
     78       0.00000           0.081041            2.20523
     79       0.00000           0.081065            2.20589
     80       0.00000           0.092948            2.52923
     81       0.00000           0.095196            2.59043
     82       0.00000           0.095679            2.60356
     83       0.00000           0.116826            3.17900
     84       0.00000           0.119689            3.25689
     85       0.00000           0.119699            3.25716
     86       0.00000           0.124929            3.39948
     87       0.00000           0.124985            3.40100
     88       0.00000           0.143266            3.89847

  Highest occupied state (VBM) at     -6.91226778 eV
  | Occupation number:      2.00000000

  Lowest unoccupied state (CBM) at    -3.55351621 eV
  | Occupation number:      0.00000000

  Overall HOMO-LUMO gap:      3.35875157 eV.

  Total energy components:
  | Sum of eigenvalues            :       -1842.22997319 Ha      -50129.62813798 eV
  | XC energy correction          :        -204.92120198 Ha       -5576.18961919 eV
  | XC potential correction       :         264.85149329 Ha        7206.97581940 eV
  | Free-atom electrostatic energy:       -1415.64503946 Ha      -38521.66148421 eV
  | Hartree energy correction     :          -0.40846821 Ha         -11.11498553 eV
  | Entropy correction            :           0.00000000 Ha           0.00000000 eV
  | ---------------------------
  | Total energy                  :       -3198.35318954 Ha      -87031.61840750 eV
  | Total energy, T -> 0          :       -3198.35318954 Ha      -87031.61840750 eV  <-- do not rely on this value for anything but (periodic) metals
  | Electronic free energy        :       -3198.35318954 Ha      -87031.61840750 eV

  Derived energy quantities:
  | Kinetic energy                :        3210.66045499 Ha       87366.51613974 eV
  | Electrostatic energy          :       -6204.09244256 Ha     -168821.94492805 eV
  | Energy correction for multipole
  | error in Hartree potential    :          -0.00027193 Ha          -0.00739947 eV
  | Sum of eigenvalues per atom                           :       -6266.20351725 eV
  | Total energy (T->0) per atom                          :      -10878.95230094 eV  <-- do not rely on this value for anything but (periodic) metals
  | Electronic free energy per atom                       :      -10878.95230094 eV
  Evaluating new KS density.
  Integration grid: deviation in total charge (<rho> - N_e) =   5.684342E-14

  Self-consistency convergence accuracy:
  | Change of charge density      :  0.2418E+00
  | Change of sum of eigenvalues  :  0.1101E+02 eV
  | Change of total energy        :  0.8560E-01 eV


------------------------------------------------------------
  End self-consistency iteration #     1       :  max(cpu_time)    wall_clock(cpu1)
  | Time for this iteration                    :        0.147 s           0.147 s
  | Charge density update                      :        0.047 s           0.046 s
  | Density mixing                             :        0.001 s           0.000 s
  | Hartree multipole update                   :        0.003 s           0.002 s
  | Hartree multipole summation                :        0.022 s           0.022 s
  | Integration                                :        0.062 s           0.062 s
  | Solution of K.-S. eqns.                    :        0.012 s           0.012 s
  | Total energy evaluation                    :        0.001 s           0.000 s

  Partial memory accounting:
  | Current value for overall tracked memory usage:
  |   Minimum:        0.624 MB (on task 24)
  |   Maximum:        0.653 MB (on task  0)
  |   Average:        0.639 MB
  | Peak value for overall tracked memory usage:
  |   Minimum:        2.996 MB (on task 30 after allocating wave)
  |   Maximum:        3.129 MB (on task  0 after allocating wave)
  |   Average:        3.073 MB
  | Largest tracked array allocation so far:
  |   Minimum:        1.337 MB (gradient_basis_wave on task  8)
  |   Maximum:        1.392 MB (gradient_basis_wave on task  0)
  |   Average:        1.371 MB
  Note:  These values currently only include a subset of arrays which are explicitly tracked.
  The "true" memory usage will be greater.
------------------------------------------------------------

------------------------------------------------------------
          Begin self-consistency iteration #    2

  Date     :  20210628, Time     :  160700.282
------------------------------------------------------------
  Pulay mixing of updated and previous charge densities.
  Renormalizing the density to the exact electron count on the 3D integration grid.
  | Formal number of electrons (from input files) :     128.0000000000
  | Integrated number of electrons on 3D grid     :     128.0000000000
  | Charge integration error                      :       0.0000000000
  | Normalization factor for density and gradient :       1.0000000000

  Evaluating partitioned Hartree potential by multipole expansion.
  | Original multipole sum: apparent total charge =   0.331207E-13
  | Sum of charges compensated after spline to logarithmic grids =   0.105531E-05
  | Analytical far-field extrapolation by fixed multipoles:
  | Hartree multipole sum: apparent total charge =   0.332056E-13
  Summing up the Hartree potential.
  Time summed over all CPUs for potential: real work        0.821 s, elapsed        0.855 s
  | RMS charge density error from multipole expansion :   0.513046E-02

  Integrating Hamiltonian matrix: batch-based integration.
  Time summed over all CPUs for integration: real work        2.316 s, elapsed        2.424 s

  Updating Kohn-Sham eigenvalues and eigenvectors using ELSI and the ELPA eigensolver.
  Starting ELPA eigensolver
  Finished transformation to standard eigenproblem
  | Time :     0.002 s
  Finished solving standard eigenproblem
  | Time :     0.007 s
  Finished back-transformation of eigenvectors
  | Time :     0.001 s

  Obtaining occupation numbers and chemical potential using ELSI.
  | Chemical potential (Fermi level):    -5.13154597 eV
  Highest occupied state (VBM) at     -6.33719987 eV
  | Occupation number:      2.00000000

  Lowest unoccupied state (CBM) at    -3.09741595 eV
  | Occupation number:      0.00000000

  Overall HOMO-LUMO gap:      3.23978392 eV.

  Checking to see if s.c.f. parameters should be adjusted.
  Kept the default occupation width. Value:   0.010000 eV.

  Total energy components:
  | Sum of eigenvalues            :       -1839.27237426 Ha      -50049.14777617 eV
  | XC energy correction          :        -205.12077863 Ha       -5581.62037630 eV
  | XC potential correction       :         265.10696495 Ha        7213.92755692 eV
  | Free-atom electrostatic energy:       -1415.64503946 Ha      -38521.66148421 eV
  | Hartree energy correction     :          -3.41247400 Ha         -92.85814201 eV
  | Entropy correction            :           0.00000000 Ha           0.00000000 eV
  | ---------------------------
  | Total energy                  :       -3198.34370139 Ha      -87031.36022177 eV
  | Total energy, T -> 0          :       -3198.34370139 Ha      -87031.36022177 eV  <-- do not rely on this value for anything but (periodic) metals
  | Electronic free energy        :       -3198.34370139 Ha      -87031.36022177 eV

  Derived energy quantities:
  | Kinetic energy                :        3211.01657481 Ha       87376.20665302 eV
  | Electrostatic energy          :       -6204.23949757 Ha     -168825.94649848 eV
  | Energy correction for multipole
  | error in Hartree potential    :          -0.00255499 Ha          -0.06952468 eV
  | Sum of eigenvalues per atom                           :       -6256.14347202 eV
  | Total energy (T->0) per atom                          :      -10878.92002772 eV  <-- do not rely on this value for anything but (periodic) metals
  | Electronic free energy per atom                       :      -10878.92002772 eV
  Evaluating new KS density.
  Integration grid: deviation in total charge (<rho> - N_e) =   2.842171E-14

  Self-consistency convergence accuracy:
  | Change of charge density      :  0.2149E+00
  | Change of sum of eigenvalues  :  0.8048E+02 eV
  | Change of total energy        :  0.2582E+00 eV


------------------------------------------------------------
  End self-consistency iteration #     2       :  max(cpu_time)    wall_clock(cpu1)
  | Time for this iteration                    :        0.145 s           0.146 s
  | Charge density update                      :        0.047 s           0.047 s
  | Density mixing                             :        0.001 s           0.001 s
  | Hartree multipole update                   :        0.002 s           0.003 s
  | Hartree multipole summation                :        0.022 s           0.022 s
  | Integration                                :        0.062 s           0.062 s
  | Solution of K.-S. eqns.                    :        0.011 s           0.011 s
  | Total energy evaluation                    :        0.000 s           0.000 s

  Partial memory accounting:
  | Current value for overall tracked memory usage:
  |   Minimum:        0.625 MB (on task 24)
  |   Maximum:        0.654 MB (on task  0)
  |   Average:        0.640 MB
  | Peak value for overall tracked memory usage:
  |   Minimum:        2.996 MB (on task 30 after allocating wave)
  |   Maximum:        3.129 MB (on task  0 after allocating wave)
  |   Average:        3.073 MB
  | Largest tracked array allocation so far:
  |   Minimum:        1.337 MB (gradient_basis_wave on task  8)
  |   Maximum:        1.392 MB (gradient_basis_wave on task  0)
  |   Average:        1.371 MB
  Note:  These values currently only include a subset of arrays which are explicitly tracked.
  The "true" memory usage will be greater.
------------------------------------------------------------

------------------------------------------------------------
          Begin self-consistency iteration #    3

  Date     :  20210628, Time     :  160700.428
------------------------------------------------------------
  Pulay mixing of updated and previous charge densities.
  Renormalizing the density to the exact electron count on the 3D integration grid.
  | Formal number of electrons (from input files) :     128.0000000000
  | Integrated number of electrons on 3D grid     :     128.0000000000
  | Charge integration error                      :       0.0000000000
  | Normalization factor for density and gradient :       1.0000000000

  Evaluating partitioned Hartree potential by multipole expansion.
  | Original multipole sum: apparent total charge =   0.920178E-13
  | Sum of charges compensated after spline to logarithmic grids =   0.949341E-06
  | Analytical far-field extrapolation by fixed multipoles:
  | Hartree multipole sum: apparent total charge =   0.920737E-13
  Summing up the Hartree potential.
  Time summed over all CPUs for potential: real work        0.822 s, elapsed        0.858 s
  | RMS charge density error from multipole expansion :   0.550146E-02

  Integrating Hamiltonian matrix: batch-based integration.
  Time summed over all CPUs for integration: real work        2.314 s, elapsed        2.416 s

  Updating Kohn-Sham eigenvalues and eigenvectors using ELSI and the ELPA eigensolver.
  Starting ELPA eigensolver
  Finished transformation to standard eigenproblem
  | Time :     0.001 s
  Finished solving standard eigenproblem
  | Time :     0.008 s
  Finished back-transformation of eigenvectors
  | Time :     0.000 s

  Obtaining occupation numbers and chemical potential using ELSI.
  | Chemical potential (Fermi level):    -5.23029253 eV
  Highest occupied state (VBM) at     -6.47021183 eV
  | Occupation number:      2.00000000

  Lowest unoccupied state (CBM) at    -3.22318994 eV
  | Occupation number:      0.00000000

  Overall HOMO-LUMO gap:      3.24702188 eV.

  Total energy components:
  | Sum of eigenvalues            :       -1840.53242669 Ha      -50083.43554735 eV
  | XC energy correction          :        -205.04680522 Ha       -5579.60745746 eV
  | XC potential correction       :         265.00940614 Ha        7211.27284658 eV
  | Free-atom electrostatic energy:       -1415.64503946 Ha      -38521.66148421 eV
  | Hartree energy correction     :          -2.12836399 Ha         -57.91573090 eV
  | Entropy correction            :           0.00000000 Ha           0.00000000 eV
  | ---------------------------
  | Total energy                  :       -3198.34322922 Ha      -87031.34737334 eV
  | Total energy, T -> 0          :       -3198.34322922 Ha      -87031.34737334 eV  <-- do not rely on this value for anything but (periodic) metals
  | Electronic free energy        :       -3198.34322922 Ha      -87031.34737334 eV

  Derived energy quantities:
  | Kinetic energy                :        3210.17908451 Ha       87353.41738247 eV
  | Electrostatic energy          :       -6203.47550851 Ha     -168805.15729834 eV
  | Energy correction for multipole
  | error in Hartree potential    :          -0.00311375 Ha          -0.08472934 eV
  | Sum of eigenvalues per atom                           :       -6260.42944342 eV
  | Total energy (T->0) per atom                          :      -10878.91842167 eV  <-- do not rely on this value for anything but (periodic) metals
  | Electronic free energy per atom                       :      -10878.91842167 eV
  Evaluating new KS density.
  Integration grid: deviation in total charge (<rho> - N_e) =   2.842171E-14

  Self-consistency convergence accuracy:
  | Change of charge density      :  0.2689E-01
  | Change of sum of eigenvalues  : -0.3429E+02 eV
  | Change of total energy        :  0.1285E-01 eV


------------------------------------------------------------
  End self-consistency iteration #     3       :  max(cpu_time)    wall_clock(cpu1)
  | Time for this iteration                    :        0.145 s           0.145 s
  | Charge density update                      :        0.047 s           0.046 s
  | Density mixing                             :        0.001 s           0.001 s
  | Hartree multipole update                   :        0.002 s           0.003 s
  | Hartree multipole summation                :        0.022 s           0.022 s
[...]
   Multipole                     :  0.203560E-01  0.128876E-01  0.661209E-01
   Hartree pot. SCF incomplete   : -0.169703E-03 -0.585390E-04  0.208747E-03
   Pulay + GGA                   : -0.236898E+02 -0.823052E+01  0.222850E+02
   ----------------------------------------------------------------
   Total forces(   2)            :  0.879900E-03  0.574105E-02 -0.162339E-03
  atom #    3
   Hellmann-Feynman              :  0.407928E+01  0.198845E+02  0.267636E+02
   Ionic forces                  :  0.000000E+00  0.000000E+00  0.000000E+00
   Multipole                     :  0.224291E-01  0.303290E-01 -0.594653E-01
   Hartree pot. SCF incomplete   : -0.241236E-04 -0.135582E-03 -0.225855E-03
   Pulay + GGA                   : -0.410039E+01 -0.199145E+02 -0.267039E+02
   ----------------------------------------------------------------
   Total forces(   3)            :  0.129322E-02  0.253030E-03  0.175173E-04
  atom #    4
   Hellmann-Feynman              : -0.407911E+01  0.198738E+02 -0.267585E+02
   Ionic forces                  :  0.000000E+00  0.000000E+00  0.000000E+00
   Multipole                     : -0.223295E-01  0.303247E-01  0.593582E-01
   Hartree pot. SCF incomplete   :  0.214704E-04 -0.134467E-03  0.232736E-03
   Pulay + GGA                   :  0.410144E+01 -0.199049E+02  0.266991E+02
   ----------------------------------------------------------------
   Total forces(   4)            :  0.218800E-04 -0.952389E-03  0.206280E-03
  atom #    5
   Hellmann-Feynman              : -0.155677E+02 -0.822597E+01 -0.286013E+02
   Ionic forces                  :  0.000000E+00  0.000000E+00  0.000000E+00
   Multipole                     : -0.398825E-01 -0.126394E-01  0.565464E-01
   Hartree pot. SCF incomplete   :  0.999806E-04  0.556173E-04  0.244858E-03
   Pulay + GGA                   :  0.156065E+02  0.823938E+01  0.285455E+02
   ----------------------------------------------------------------
   Total forces(   5)            : -0.986848E-03  0.825999E-03  0.104371E-02
  atom #    6
   Hellmann-Feynman              : -0.121661E+02 -0.198955E+02  0.241421E+02
   Ionic forces                  :  0.000000E+00  0.000000E+00  0.000000E+00
   Multipole                     : -0.249523E-02 -0.302246E-01 -0.635031E-01
   Hartree pot. SCF incomplete   :  0.953835E-04  0.133202E-03 -0.208896E-03
   Pulay + GGA                   :  0.121669E+02  0.199288E+02 -0.240779E+02
   ----------------------------------------------------------------
   Total forces(   6)            : -0.157729E-02  0.319559E-02  0.488065E-03
  atom #    7
   Hellmann-Feynman              :  0.121660E+02 -0.198803E+02 -0.242455E+02
   Ionic forces                  :  0.000000E+00  0.000000E+00  0.000000E+00
   Multipole                     :  0.281855E-02 -0.309988E-01  0.634616E-01
   Hartree pot. SCF incomplete   : -0.956678E-04  0.132059E-03  0.219123E-03
   Pulay + GGA                   : -0.121722E+02  0.198934E+02  0.241709E+02
   ----------------------------------------------------------------
   Total forces(   7)            : -0.352179E-02 -0.177271E-01 -0.108727E-01
  atom #    8
   Hellmann-Feynman              : -0.236830E+02  0.823295E+01  0.223475E+02
   Ionic forces                  :  0.000000E+00  0.000000E+00  0.000000E+00
   Multipole                     : -0.203458E-01  0.126496E-01 -0.662403E-01
   Hartree pot. SCF incomplete   :  0.170889E-03 -0.549018E-04 -0.196948E-03
   Pulay + GGA                   :  0.237017E+02 -0.824552E+01 -0.222813E+02
   ----------------------------------------------------------------
   Total forces(   8)            : -0.144219E-02  0.222317E-04 -0.204176E-03


  Self-consistency convergence accuracy:
  | Change of charge density      :  0.2520E-05
  | Change of sum of eigenvalues  :  0.6280E-04 eV
  | Change of total energy        :  0.3108E-07 eV
  | Change of forces              :  0.1102E+01 eV/A

  Writing Kohn-Sham eigenvalues.

  State    Occupation    Eigenvalue [Ha]    Eigenvalue [eV]
      1       2.00000         -88.678495        -2413.06463
      2       2.00000         -88.678457        -2413.06359
      3       2.00000         -88.678456        -2413.06357
      4       2.00000         -88.678452        -2413.06344
      5       2.00000         -88.678440        -2413.06313
      6       2.00000         -88.678435        -2413.06300
      7       2.00000         -88.678432        -2413.06292
      8       2.00000         -88.678404        -2413.06216
      9       2.00000          -7.780054         -211.70605
     10       2.00000          -7.780020         -211.70512
     11       2.00000          -7.780012         -211.70490
     12       2.00000          -7.779991         -211.70434
     13       2.00000          -7.779982         -211.70407
     14       2.00000          -7.779959         -211.70346
     15       2.00000          -7.779950         -211.70321
     16       2.00000          -7.779937         -211.70287
     17       2.00000          -5.754898         -156.59873
     18       2.00000          -5.754857         -156.59763
     19       2.00000          -5.754841         -156.59720
     20       2.00000          -5.754743         -156.59452
     21       2.00000          -5.754726         -156.59407
     22       2.00000          -5.754623         -156.59126
     23       2.00000          -5.754610         -156.59092
     24       2.00000          -5.754571         -156.58984
     25       2.00000          -5.751162         -156.49707
     26       2.00000          -5.751137         -156.49640
     27       2.00000          -5.751123         -156.49602
     28       2.00000          -5.751075         -156.49472
     29       2.00000          -5.751059         -156.49428
     30       2.00000          -5.751013         -156.49302
     31       2.00000          -5.751003         -156.49275
     32       2.00000          -5.750986         -156.49229
     33       2.00000          -5.744166         -156.30671
     34       2.00000          -5.744109         -156.30516
     35       2.00000          -5.744108         -156.30514
     36       2.00000          -5.744106         -156.30506
     37       2.00000          -5.744103         -156.30500
     38       2.00000          -5.744094         -156.30476
     39       2.00000          -5.744094         -156.30475
     40       2.00000          -5.744064         -156.30392
     41       2.00000          -0.804284          -21.88567
     42       2.00000          -0.775334          -21.09791
     43       2.00000          -0.775207          -21.09447
     44       2.00000          -0.698710          -19.01287
     45       2.00000          -0.698591          -19.00962
     46       2.00000          -0.594338          -16.17277
     47       2.00000          -0.594242          -16.17015
     48       2.00000          -0.522684          -14.22295
     49       2.00000          -0.434731          -11.82963
     50       2.00000          -0.408036          -11.10323
     51       2.00000          -0.408020          -11.10278
     52       2.00000          -0.376329          -10.24043
     53       2.00000          -0.350802           -9.54581
     54       2.00000          -0.350736           -9.54400
     55       2.00000          -0.345156           -9.39217
     56       2.00000          -0.345111           -9.39094
     57       2.00000          -0.310461           -8.44808
     58       2.00000          -0.258064           -7.02228
     59       2.00000          -0.258039           -7.02160
     60       2.00000          -0.251552           -6.84509
     61       2.00000          -0.251477           -6.84303
     62       2.00000          -0.242909           -6.60990
     63       2.00000          -0.242855           -6.60842
     64       2.00000          -0.237219           -6.45506
     65       0.00000          -0.117705           -3.20293
     66       0.00000          -0.117648           -3.20137
     67       0.00000          -0.104123           -2.83333
     68       0.00000          -0.071325           -1.94086
     69       0.00000          -0.069645           -1.89513
     70       0.00000          -0.069581           -1.89341
     71       0.00000          -0.066436           -1.80782
     72       0.00000          -0.066316           -1.80454
     73       0.00000           0.042770            1.16383
     74       0.00000           0.063473            1.72719
     75       0.00000           0.063516            1.72836
     76       0.00000           0.077490            2.10861
     77       0.00000           0.077509            2.10912
     78       0.00000           0.090128            2.45250
     79       0.00000           0.090153            2.45319
     80       0.00000           0.102196            2.78090
     81       0.00000           0.105746            2.87750
     82       0.00000           0.108157            2.94310
     83       0.00000           0.129323            3.51906
     84       0.00000           0.131524            3.57895
     85       0.00000           0.131534            3.57922
     86       0.00000           0.136331            3.70977
     87       0.00000           0.136390            3.71136
     88       0.00000           0.155232            4.22407

  Highest occupied state (VBM) at     -6.45505552 eV
  | Occupation number:      2.00000000

  Lowest unoccupied state (CBM) at    -3.20292569 eV
  | Occupation number:      0.00000000

  Overall HOMO-LUMO gap:      3.25212983 eV.
  | Chemical Potential                          :    -5.21846875 eV

  Self-consistency cycle converged.


------------------------------------------------------------
  End self-consistency iteration #    12       :  max(cpu_time)    wall_clock(cpu1)
  | Time for this iteration                    :        0.438 s           0.439 s
  | Charge density & force component update    :        0.239 s           0.239 s
  | Density mixing                             :        0.003 s           0.003 s
  | Hartree multipole update                   :        0.002 s           0.003 s
  | Hartree multipole summation                :        0.072 s           0.072 s
  | Hartree pot. SCF incomplete forces         :        0.049 s           0.049 s
  | Integration                                :        0.062 s           0.062 s
  | Solution of K.-S. eqns.                    :        0.009 s           0.009 s
  | Total energy evaluation                    :        0.000 s           0.000 s

  Partial memory accounting:
  | Current value for overall tracked memory usage:
  |   Minimum:        0.628 MB (on task 24)
  |   Maximum:        0.658 MB (on task  0)
  |   Average:        0.643 MB
  | Peak value for overall tracked memory usage:
  |   Minimum:        5.566 MB (on task 30 after allocating hessian_basis_wave)
  |   Maximum:        5.772 MB (on task  0 after allocating hessian_basis_wave)
  |   Average:        5.687 MB
  | Largest tracked array allocation so far:
  |   Minimum:        2.673 MB (hessian_basis_wave on task  8)
  |   Maximum:        2.783 MB (hessian_basis_wave on task  0)
  |   Average:        2.741 MB
  Note:  These values currently only include a subset of arrays which are explicitly tracked.
  The "true" memory usage will be greater.
------------------------------------------------------------
  Removing unitary transformations (pure translations, rotations) from forces on atoms.
  Atomic forces before filtering:
  | Net force on center of mass :  -0.160360E-05 -0.907077E-04 -0.124845E-04 eV/A
  | Net torque on center of mass:   0.692016E-05 -0.166976E-03 -0.953476E-05 eV
  Atomic forces after filtering:
  | Net force on center of mass :   0.104535E-17 -0.298360E-17  0.718677E-18 eV/A
  | Net torque on center of mass:  -0.674902E-18 -0.719127E-17 -0.184392E-18 eV

  Energy and forces in a compact form:
  | Total energy uncorrected      :         -0.870313469370687E+05 eV
  | Total energy corrected        :         -0.870313469370687E+05 eV  <-- do not rely on this value for anything but (periodic) metals
  | Electronic free energy        :         -0.870313469370687E+05 eV
  Total atomic forces (unitary forces cleaned) [eV/Ang]:
  |    1          0.533748288646775E-02          0.856281280094082E-02          0.945873301851789E-02
  |    2          0.879018484773806E-03          0.575279270643543E-02         -0.176255727250035E-03
  |    3          0.129721258492947E-02          0.264683717049506E-03          0.129430654522572E-04
  |    4          0.174330647006181E-04         -0.941365874823448E-03          0.212876533596178E-03
  |    5         -0.992065324508029E-03          0.836725070776419E-03          0.105971084492592E-02
  |    6         -0.157438226220184E-02          0.320682159576506E-02          0.496794988356051E-03
  |    7         -0.352344191576027E-02         -0.177156371519365E-01         -0.108772095598772E-01
  |    8         -0.144125751840151E-02          0.331671357927271E-04         -0.187593163721009E-03

  ------------------------------------ 
  Start decomposition of the XC Energy 
  ------------------------------------ 
  X and C from original XC functional choice 
  Hartree-Fock Energy :          0.000000000 Ha              0.000000000 eV
  X Energy            :       -200.052546892 Ha          -5443.706773692 eV
  C Energy            :         -5.002927369 Ha           -136.136580261 eV
  Total XC Energy     :       -205.055474261 Ha          -5579.843353953 eV
  ------------------------------------ 
  LDA X and C from self-consistent density 
  X Energy LDA        :       -185.463567029 Ha          -5046.720433155 eV
  C Energy LDA        :         -9.954345128 Ha           -270.871512715 eV
  ------------------------------------ 
  End decomposition of the XC Energy 
  ------------------------------------ 

------------------------------------------------------------

------------------------------------------------------------------------------
  Final output of selected total energy values:

  The following output summarizes some interesting total energy values
  at the end of a run (AFTER all relaxation, molecular dynamics, etc.).

  | Total energy of the DFT / Hartree-Fock s.c.f. calculation      :         -87031.346937069 eV
  | Final zero-broadening corrected energy (caution - metals only) :         -87031.346937069 eV
  | For reference only, the value of 1 Hartree used in FHI-aims is :             27.211384500 eV

  Before relying on these values, please be sure to understand exactly which
  total energy value is referred to by a given number. Different objects may
  all carry the same name 'total energy'. Definitions:

  Total energy of the DFT / Hartree-Fock s.c.f. calculation:
  | Note that this energy does not include ANY quantities calculated after the
  | s.c.f. cycle, in particular not ANY RPA, MP2, etc. many-body perturbation terms.

  Final zero-broadening corrected energy:
  | For metallic systems only, a broadening of the occupation numbers at the Fermi
  | level can be extrapolated back to zero broadening by an electron-gas inspired
  | formula. For all systems that are not real metals, this value can be
  | meaningless and should be avoided.

------------------------------------------------------------------------------
  Methods described in the following list of references were used in this FHI-aims run.
  If you publish the results, please make sure to cite these reference if they apply.
  FHI-aims is an academic code, and for our developers (often, Ph.D. students
  and postdocs), scientific credit in the community is essential.
  Thank you for helping us!

  For any use of FHI-aims, please cite:

    Volker Blum, Ralf Gehrke, Felix Hanke, Paula Havu, Ville Havu,
    Xinguo Ren, Karsten Reuter, and Matthias Scheffler
    'Ab initio molecular simulations with numeric atom-centered orbitals'
    Computer Physics Communications 180, 2175-2196 (2009)
    http://dx.doi.org/10.1016/j.cpc.2009.06.022


  The ELSI infrastructure was used in your run to solve the Kohn-Sham electronic structure.
  Please check out http://elsi-interchange.org to learn more.
  If scalability is important for your project, please acknowledge ELSI by citing:

    V. W-z. Yu, F. Corsetti, A. Garcia, W. P. Huhn, M. Jacquelin, W. Jia,
    B. Lange, L. Lin, J. Lu, W. Mi, A. Seifitokaldani, A. Vazquez-Mayagoitia,
    C. Yang, H. Yang, and V. Blum
    'ELSI: A unified software interface for Kohn-Sham electronic structure solvers'
    Computer Physics Communications 222, 267-285 (2018).
    http://dx.doi.org/10.1016/j.cpc.2017.09.007


  For the real-space grid partitioning and parallelization used in this calculation, please cite:

    Ville Havu, Volker Blum, Paula Havu, and Matthias Scheffler,
    'Efficient O(N) integration for all-electron electronic structure calculation'
    'using numerically tabulated basis functions'
    Journal of Computational Physics 228, 8367-8379 (2009).
    http://dx.doi.org/10.1016/j.jcp.2009.08.008

  Of course, there are many other important community references, e.g., those cited in the
  above references. Our list is limited to references that describe implementations in the
  FHI-aims code. The reason is purely practical (length of this list) - please credit others as well.

------------------------------------------------------------
          Leaving FHI-aims.
          Date     :  20210628, Time     :  160702.196

          Computational steps:
          | Number of self-consistency cycles          :           12
          | Number of SCF (re)initializations          :            1

          Detailed time accounting                     :  max(cpu_time)    wall_clock(cpu1)
          | Total time                                 :        2.852 s           2.859 s
          | Preparation time                           :        0.435 s           0.444 s
          | Boundary condition initalization           :        0.000 s           0.000 s
          | Grid partitioning                          :        0.089 s           0.089 s
          | Preloading free-atom quantities on grid    :        0.020 s           0.020 s
          | Free-atom superposition energy             :        0.006 s           0.006 s
          | Total time for integrations                :        0.834 s           0.835 s
          | Total time for solution of K.-S. equations :        0.153 s           0.154 s
          | Total time for density & force components  :        0.802 s           0.801 s
          | Total time for mixing                      :        0.023 s           0.019 s
          | Total time for Hartree multipole update    :        0.030 s           0.032 s
          | Total time for Hartree multipole sum       :        0.315 s           0.313 s
          | Total time for total energy evaluation     :        0.003 s           0.003 s
          | Total time NSC force correction            :        0.049 s           0.049 s
          | Total time for scaled ZORA corrections     :        0.000 s           0.000 s

          Partial memory accounting:
          | Residual value for overall tracked memory usage across tasks:     0.000000 MB (should be 0.000000 MB)
          | Peak values for overall tracked memory usage:
          |   Minimum:        5.566 MB (on task 30 after allocating hessian_basis_wave)
          |   Maximum:        5.772 MB (on task  0 after allocating hessian_basis_wave)
          |   Average:        5.687 MB
          | Largest tracked array allocation:
          |   Minimum:        2.673 MB (hessian_basis_wave on task  8)
          |   Maximum:        2.783 MB (hessian_basis_wave on task  0)
          |   Average:        2.741 MB
          Note:  These values currently only include a subset of arrays which are explicitly tracked.
          The "true" memory usage will be greater.

          Have a nice day.
------------------------------------------------------------
