------------------------------------------------------------
          Invoking FHI-aims ...

          When using FHI-aims, please cite the following reference:

            Volker Blum, Ralf Gehrke, Felix Hanke, Paula Havu,
            Ville Havu, Xinguo Ren, Karsten Reuter, and Matthias Scheffler,
            'Ab Initio Molecular Simulations with Numeric Atom-Centered Orbitals',
            Computer Physics Communications 180, 2175-2196 (2009)

          In addition, many other developments in FHI-aims are likely important for
          your particular application. A partial list of references is given at the end of
          this file. Thank you for giving credit to the authors of these developments.

          For any questions about FHI-aims, please visit our slack channel at

            https://fhi-aims.slack.com

          and our main development and support site at

            https://aims-git.rz-berlin.mpg.de .

          The latter site, in particular, has a wiki to collect information, as well
          as an issue tracker to log discussions, suggest improvements, and report issues
          or bugs. https://aims-git.rz-berlin.mpg.de is also the main development site
          of the project and all new and updated code versions can be obtained there.
          Please send an email to aims-coordinators@fhi-berlin.mpg.de and we will add
          you to these sites. They are for you and everyone is welcome there.

------------------------------------------------------------



  Date     :  20210927, Time     :  124941.467
  Time zero on CPU 1             :   0.214698000000000E+00  s.
  Internal wall clock time zero  :           401978981.467  s.

  FHI-aims created a unique identifier for this run for later identification
  aims_uuid : C8E6B7FC-2B0C-4AF8-AC9E-EF2BFC899B60

  Build configuration of the current instance of FHI-aims
  -------------------------------------------------------
  FHI-aims version      : 210513
  Commit number         : 1a2d0b161
  CMake host system     : Linux-4.12.14-122.63-default
  CMake version         : 3.5.2
  Fortran compiler      : /mpcdf/soft/SLE_12/packages/x86_64/intel_parallel_studio/2020.1/compilers_and_libraries_2020.1.217/linux/mpi/intel64/bin/mpiifort (Intel) version 19.1.0.20200306
  Fortran compiler flags: -O3 -ip -fp-model precise
  C compiler            : /mpcdf/soft/SLE_12/packages/x86_64/intel/19.1.1/bin/icc (Intel) version 19.1.0.20200306
  C compiler flags      : -O3 -ip -fp-model precise -std=gnu99
  C++ compiler          : /mpcdf/soft/SLE_12/packages/x86_64/intel/19.1.1/bin/icpc (Intel) version 19.1.0.20200306
  C++ compiler flags    : -O3 -ip -fp-model precise -std=gnu99
  Using MPI
  Using ScaLAPACK
  Using LibXC
  Using i-PI
  Using RLSY
  Linking against: /mpcdf/soft/SLE_12/packages/x86_64/intel_parallel_studio/2020.1/mkl/lib/intel64/libmkl_intel_lp64.so
                   /mpcdf/soft/SLE_12/packages/x86_64/intel_parallel_studio/2020.1/mkl/lib/intel64/libmkl_sequential.so
                   /mpcdf/soft/SLE_12/packages/x86_64/intel_parallel_studio/2020.1/mkl/lib/intel64/libmkl_core.so
                   /mpcdf/soft/SLE_12/packages/x86_64/intel_parallel_studio/2020.1/mkl/lib/intel64/libmkl_blacs_intelmpi_lp64.so
                   /mpcdf/soft/SLE_12/packages/x86_64/intel_parallel_studio/2020.1/mkl/lib/intel64/libmkl_scalapack_lp64.so

  Using       40 parallel tasks.
  Task        0 on host co1603 reporting.
  Task        1 on host co1603 reporting.
  Task        2 on host co1603 reporting.
  Task        3 on host co1603 reporting.
  Task        4 on host co1603 reporting.
  Task        5 on host co1603 reporting.
  Task        6 on host co1603 reporting.
  Task        7 on host co1603 reporting.
  Task        8 on host co1603 reporting.
  Task        9 on host co1603 reporting.
  Task       10 on host co1603 reporting.
  Task       11 on host co1603 reporting.
  Task       12 on host co1603 reporting.
  Task       13 on host co1603 reporting.
  Task       14 on host co1603 reporting.
  Task       15 on host co1603 reporting.
  Task       16 on host co1603 reporting.
  Task       17 on host co1603 reporting.
  Task       18 on host co1603 reporting.
  Task       19 on host co1603 reporting.
  Task       20 on host co1603 reporting.
  Task       21 on host co1603 reporting.
  Task       22 on host co1603 reporting.
  Task       23 on host co1603 reporting.
  Task       24 on host co1603 reporting.
  Task       25 on host co1603 reporting.
  Task       26 on host co1603 reporting.
  Task       27 on host co1603 reporting.
  Task       28 on host co1603 reporting.
  Task       29 on host co1603 reporting.
  Task       30 on host co1603 reporting.
  Task       31 on host co1603 reporting.
  Task       32 on host co1603 reporting.
  Task       33 on host co1603 reporting.
  Task       34 on host co1603 reporting.
  Task       35 on host co1603 reporting.
  Task       36 on host co1603 reporting.
  Task       37 on host co1603 reporting.
  Task       38 on host co1603 reporting.
  Task       39 on host co1603 reporting.

  Performing system and environment tests:
  | Environment variable OMP_NUM_THREADS correctly set to 1.
  | Checking for ScaLAPACK...
  | Testing pdtran()...
  | All pdtran() tests passed.

  Obtaining array dimensions for all initial allocations:
  
  -----------------------------------------------------------------------
  Parsing control.in (first pass over file, find array dimensions only).
  The contents of control.in will be repeated verbatim below
  unless switched off by setting 'verbatim_writeout .false.' .
  in the first line of control.in .
  -----------------------------------------------------------------------
  
  ##### Physical settings  ################
  xc                 pbe
  spin               none
  charge      0.0
  relativistic       atomic_zora scalar
  #elsi_restart read
  # SCF settings
  
  #vdw_correction_hirshfeld
  # k-grid settings  (to be adjusted)
  #empty_states 8
  #use_dipole_correction
  #include_spin_orbit non_self_consistent
  
  mixer   pulay
  n_max_pulay        12 # high for metal
  charge_mix_param   0.1 #low for metal
  many_body_dispersion_nl    beta=0.81
  ################################################################################
  #
  #  FHI-aims code project
  # Volker Blum, Fritz Haber Institute Berlin, 2009
  #
  #  Suggested "tight" defaults for S atom (to be pasted into control.in file)
  #
  #  Revised Jan 04, 2011, following tests (SiC) done by Lydia Nemec:
  #     d and g functions of tier 2 now enabled by default.
  #
  ################################################################################
    species        S
  #     global species definitions
      nucleus             16
      mass                32.065
  #
      l_hartree           6
  #
      cut_pot             4.0          2.0  1.0
      basis_dep_cutoff    1e-4
  #
      radial_base         44 7.0
      radial_multiplier   2
      angular_grids       specified
        division   0.4665  110
        division   0.5810  194
        division   0.7139  302
        division   0.8274  434
  #      division   0.9105  590
  #      division   1.0975  770
  #      division   1.2028  974
  #      outer_grid  974
        outer_grid  434
  ################################################################################
  #
  #  Definition of "minimal" basis
  #
  ################################################################################
  #     valence basis states
      valence      3  s   2.
      valence      3  p   4.
  #     ion occupancy
      ion_occ      3  s   1.
      ion_occ      3  p   3.
  ################################################################################
  #
  #  Suggested additional basis functions. For production calculations,
  #  uncomment them one after another (the most important basis functions are
  #  listed first).
  #
  #  Constructed for dimers: 1.6 A, 1.9 A, 2.5 A, 3.25 A, 4.0 A
  #
  ################################################################################
  #  "First tier" - improvements: -652.81 meV to -45.53 meV
       ionic 3 d auto
       hydro 2 p 1.8
       hydro 4 f 7
       ionic 3 s auto
  #  "Second tier" - improvements: -30.20 meV to -1.74 meV
       hydro 4 d 6.2
       hydro 5 g 10.8
  #     hydro 4 p 4.9
  #     hydro 5 f 10
  #     hydro 1 s 0.8
  #  "Third tier" - improvements: -1.04 meV to -0.20 meV
  #     hydro 3 d 3.9
  #     hydro 3 d 2.7
  #     hydro 5 g 12
  #     hydro 4 p 10.4
  #     hydro 5 f 12.4
  #     hydro 2 s 1.9
  #  "Fourth tier" - improvements: -0.35 meV to -0.06 meV
  #     hydro 4 d 10.4
  #     hydro 4 p 7.2
  #     hydro 4 d 10
  #     hydro 5 g 19.2
  #     hydro 4 s 12
  
  ################################################################################
  #
  # For methods that use the localized form of the "resolution of identity" for
  # the two-electron Coulomb operator (RI_method LVL), particularly Hartree-Fock and
  # hybrid density functional calculations, the highest accuracy can be obtained by
  # uncommenting the line beginning with "for_aux"  below, thus adding an extra g radial
  # function to the construction of the product basis set for the expansion.
  # See Ref. New J. Phys. 17, 093020 (2015) for more information, particularly Figs. 1 and 6.
  #
  ################################################################################
  #
  # for_aux hydro 5 g 6.0
  ################################################################################
  #
  #  FHI-aims code project
  # Volker Blum, Fritz Haber Institute Berlin, 2009
  #
  #  Suggested "tight" defaults for Mo atom (to be pasted into control.in file)
  #
  ################################################################################
    species        Mo
  #     global species definitions
      nucleus             42
      mass                95.94
  #
      l_hartree           6
  #
      cut_pot             4.0  2.0  1.0
      basis_dep_cutoff    1e-4
  #
      radial_base         59 7.0
      radial_multiplier   2
      angular_grids specified
        division   0.3117   50
        division   0.6750  110
        division   1.0351  194
        division   1.2073  302
        division   1.6402  434
  #      division   1.9185  590
  #      division   2.0237  770
  #      division   2.0980  974
  #      division   2.7972 1202
  #      outer_grid  974
        outer_grid  434
  ################################################################################
  #
  #  Definition of "minimal" basis
  #
  ################################################################################
  #     valence basis states
      valence      5  s   1.
      valence      4  p   6.
      valence      4  d   5.
  #     ion occupancy
      ion_occ     5  s   0.
      ion_occ     4  p   6.
      ion_occ     4  d   4.
  ################################################################################
  #
  #  Suggested additional basis functions. For production calculations,
  #  uncomment them one after another (the most important basis functions are
  #  listed first).
  #
  #  Constructed for dimers: 1.675 A, 1.9 A, 2.375 A, 3.00 A, 4.00 A
  #
  ################################################################################
  #  "First tier"  - max. impr. -711.23  meV, min. impr. -21.07 meV
       hydro 4 f 8.4
       hydro 3 d 2.8
       ionic 5 p auto
       hydro 5 g 12
       ionic 5 s auto
  #  "Second tier" - max. impr. -39.38  meV, min. impr. -2.68 meV
  #     hydro 4 f 12.4
  #     hydro 3 d 3.3
  #     hydro 6 h 17.2
  #     hydro 4 f 7.6
  #     hydro 3 p 3.0
  #     hydro 1 s 0.65
  #  "Third tier"  - max. impr. -5.50 meV, min. impr. -0.47 meV
  #     hydro 4 f 29.2
  #     hydro 5 g 11.2
  #     hydro 3 d 6.8
  #     hydro 6 h 14.8
  #     hydro 2 p 2.3
  #     hydro 4 s 3.8
  #  "Fourth tier"  - max. impr. -0.58 meV, min. impr. -0.19 meV
  #     hydro 5 f 6.8
  #     hydro 5 d 14.8
  #     hydro 6 s 7.8
  #     hydro 5 g 20.8
  #     hydro 5 d 10.4
  #     hydro 5 p 9.8
  #  Further functions - -0.17 meV and below
  #     hydro 5 d 3.2
  compute_forces .true.
  final_forces_cleaned .true.
  
  -----------------------------------------------------------------------
  Completed first pass over input file control.in .
  -----------------------------------------------------------------------
  
  
  -----------------------------------------------------------------------
  Parsing geometry.in (first pass over file, find array dimensions only).
  The contents of geometry.in will be repeated verbatim below
  unless switched off by setting 'verbatim_writeout .false.' .
  in the first line of geometry.in .
  -----------------------------------------------------------------------
  
  #
  # temporary structure-file for finite-difference calculation of forces
  # displacement   0.0025 of \# atom     1 direction     0
  #
  atom    2.27134959    5.76124024    7.68191777   S
  atom    2.42710880    7.58564417    6.71883919   S
  atom    0.99745971    8.87604933    7.47886503   S
  atom   -0.65137537    8.87605174    6.22963354   S
  atom   -1.92527808    5.76124812    6.02658336   S
  atom   -0.80460670    4.47085777    7.19204068   S
  atom    1.15067215    4.47085480    6.51645977   S
  atom   -2.07853010    7.58565383    6.98966067   S
  
  -----------------------------------------------------------------------
  Completed first pass over input file geometry.in .
  -----------------------------------------------------------------------
  

  Basic array size parameters:
  | Number of species                 :        2
  | Number of atoms                   :        8
  | Max. basis fn. angular momentum   :        4
  | Max. atomic/ionic basis occupied n:        5
  | Max. number of basis fn. types    :        3
  | Max. radial fns per species/type  :       10
  | Max. logarithmic grid size        :     1436
  | Max. radial integration grid size :      119
  | Max. angular integration grid size:      434
  | Max. angular grid division number :        8
  | Radial grid for Hartree potential :     1436
  | Number of spin channels           :        1

------------------------------------------------------------
          Reading file control.in.
------------------------------------------------------------
  XC: Using PBE gradient-corrected functionals.
  Spin treatment: No spin polarisation.
  Charge =   0.000000E+00: Neutral system requested explicitly.
  Scalar relativistic treatment of kinetic energy: on-site free-atom approximation to ZORA.
  Using pulay charge density mixing.
  Pulay mixing - number of memorized iterations:   12
  Charge density mixing - mixing parameter:     0.1000
  Using libMBD for calculating MBD and TS energies
 
  Reading configuration options for species S                   .
  | Found nuclear charge :  16.0000
  | Found atomic mass :    32.0650000000000      amu
  | Found l_max for Hartree potential  :   6
  | Found cutoff potl. onset [A], width [A], scale factor :    4.00000    2.00000    1.00000
  | Threshold for basis-dependent cutoff potential is   0.100000E-03
  | Found data for basic radial integration grid :    44 points, outermost radius =    7.000 A
  | Found multiplier for basic radial grid :   2
  | Found angular grid specification: user-specified.
  | Specified grid contains     5 separate shells.
  | Check grid settings after all constraints further below.
  | Found free-atom valence shell :  3 s   2.000
  | Found free-atom valence shell :  3 p   4.000
  | Found free-ion valence shell :  3 s   1.000
  | Found free-ion valence shell :  3 p   3.000
  | Found ionic basis function :  3 d , default cutoff radius.
  | Found hydrogenic basis function :  2 p   1.800
  | Found hydrogenic basis function :  4 f   7.000
  | Found ionic basis function :  3 s , default cutoff radius.
  | Found hydrogenic basis function :  4 d   6.200
  | Found hydrogenic basis function :  5 g  10.800
  Species S                   : Missing cutoff potential type.
  Defaulting to exp(1/x)/(1-x)^2 type cutoff potential.
  Species S : No 'logarithmic' tag. Using default grid for free atom:
  | Default logarithmic grid data [bohr] : 0.1000E-03 0.1000E+03 0.1012E+01
  | Will include ionic basis functions of  2.0-fold positive S                    ion.
  Species S : On-site basis accuracy parameter (for Gram-Schmidt orthonormalisation) not specified.
  Using default value basis_acc =  0.1000000E-03.
  Species S                   : Using default innermost maximum threshold i_radial=  2 for radial functions.
  Species S                   : Default cutoff onset for free atom density etc. : 0.40000000E+01 AA.
  Species S                   : Basic radial grid will be enhanced according to radial_multiplier =   2, to contain    89 grid points.
 
  Reading configuration options for species Mo                  .
  | Found nuclear charge :  42.0000
  | Found atomic mass :    95.9400000000000      amu
  | Found l_max for Hartree potential  :   6
  | Found cutoff potl. onset [A], width [A], scale factor :    4.00000    2.00000    1.00000
  | Threshold for basis-dependent cutoff potential is   0.100000E-03
  | Found data for basic radial integration grid :    59 points, outermost radius =    7.000 A
  | Found multiplier for basic radial grid :   2
  | Found angular grid specification: user-specified.
  | Specified grid contains     6 separate shells.
  | Check grid settings after all constraints further below.
  | Found free-atom valence shell :  5 s   1.000
  | Found free-atom valence shell :  4 p   6.000
  | Found free-atom valence shell :  4 d   5.000
  | Found free-ion valence shell :  5 s   0.000
  | Found free-ion valence shell :  4 p   6.000
  | Found free-ion valence shell :  4 d   4.000
  | Found hydrogenic basis function :  4 f   8.400
  | Found hydrogenic basis function :  3 d   2.800
  | Found ionic basis function :  5 p , default cutoff radius.
  | Found hydrogenic basis function :  5 g  12.000
  | Found ionic basis function :  5 s , default cutoff radius.
  Species Mo                  : Missing cutoff potential type.
  Defaulting to exp(1/x)/(1-x)^2 type cutoff potential.
  Species Mo: No 'logarithmic' tag. Using default grid for free atom:
  | Default logarithmic grid data [bohr] : 0.1000E-03 0.1000E+03 0.1012E+01
  | Will include ionic basis functions of  2.0-fold positive Mo                   ion.
  Species Mo: On-site basis accuracy parameter (for Gram-Schmidt orthonormalisation) not specified.
  Using default value basis_acc =  0.1000000E-03.
  Species Mo                  : Using default innermost maximum threshold i_radial=  2 for radial functions.
  Species Mo                  : Default cutoff onset for free atom density etc. : 0.40000000E+01 AA.
  Species Mo                  : Basic radial grid will be enhanced according to radial_multiplier =   2, to contain   119 grid points.
  Forces will be computed.
  Cleaning forces before final output.
 
  Finished reading input file 'control.in'.
 
------------------------------------------------------------


------------------------------------------------------------
          Reading geometry description geometry.in.
------------------------------------------------------------
  | The smallest distance between any two atoms is         2.06863154 AA.
  | The first atom of this pair is atom number                      3 .
  | The second atom of this pair is atom number                     4 .
  Input structure read successfully.
  The structure contains        8 atoms,  and a total of        128.000 electrons.

  Input geometry:
  | No unit cell requested.
  | Atomic structure:
  |       Atom                x [A]            y [A]            z [A]
  |    1: Species S             2.27134959        5.76124024        7.68191777
  |    2: Species S             2.42710880        7.58564417        6.71883919
  |    3: Species S             0.99745971        8.87604933        7.47886503
  |    4: Species S            -0.65137537        8.87605174        6.22963354
  |    5: Species S            -1.92527808        5.76124812        6.02658336
  |    6: Species S            -0.80460670        4.47085777        7.19204068
  |    7: Species S             1.15067215        4.47085480        6.51645977
  |    8: Species S            -2.07853010        7.58565383        6.98966067

 
  Finished reading input file 'control.in'.
 

------------------------------------------------------------
          Reading geometry description geometry.in.
------------------------------------------------------------
 
  Consistency checks for stacksize environment parameter are next.
 
  | Maximum stacksize for task 0: unlimited
  | Maximum stacksize for task 1: unlimited
  | Maximum stacksize for task 2: unlimited
  | Maximum stacksize for task 3: unlimited
  | Maximum stacksize for task 4: unlimited
  | Maximum stacksize for task 5: unlimited
  | Maximum stacksize for task 6: unlimited
  | Maximum stacksize for task 7: unlimited
  | Maximum stacksize for task 8: unlimited
  | Maximum stacksize for task 9: unlimited
  | Maximum stacksize for task 10: unlimited
  | Maximum stacksize for task 11: unlimited
  | Maximum stacksize for task 12: unlimited
  | Maximum stacksize for task 13: unlimited
  | Maximum stacksize for task 14: unlimited
  | Maximum stacksize for task 15: unlimited
  | Maximum stacksize for task 16: unlimited
  | Maximum stacksize for task 17: unlimited
  | Maximum stacksize for task 18: unlimited
  | Maximum stacksize for task 19: unlimited
  | Maximum stacksize for task 20: unlimited
  | Maximum stacksize for task 21: unlimited
  | Maximum stacksize for task 22: unlimited
  | Maximum stacksize for task 23: unlimited
  | Maximum stacksize for task 24: unlimited
  | Maximum stacksize for task 25: unlimited
  | Maximum stacksize for task 26: unlimited
  | Maximum stacksize for task 27: unlimited
  | Maximum stacksize for task 28: unlimited
  | Maximum stacksize for task 29: unlimited
  | Maximum stacksize for task 30: unlimited
  | Maximum stacksize for task 31: unlimited
  | Maximum stacksize for task 32: unlimited
  | Maximum stacksize for task 33: unlimited
  | Maximum stacksize for task 34: unlimited
  | Maximum stacksize for task 35: unlimited
  | Maximum stacksize for task 36: unlimited
  | Maximum stacksize for task 37: unlimited
  | Maximum stacksize for task 38: unlimited
  | Maximum stacksize for task 39: unlimited
  | Current stacksize for task 0: unlimited
  | Current stacksize for task 1: unlimited
  | Current stacksize for task 2: unlimited
  | Current stacksize for task 3: unlimited
  | Current stacksize for task 4: unlimited
  | Current stacksize for task 5: unlimited
  | Current stacksize for task 6: unlimited
  | Current stacksize for task 7: unlimited
  | Current stacksize for task 8: unlimited
  | Current stacksize for task 9: unlimited
  | Current stacksize for task 10: unlimited
  | Current stacksize for task 11: unlimited
  | Current stacksize for task 12: unlimited
  | Current stacksize for task 13: unlimited
  | Current stacksize for task 14: unlimited
  | Current stacksize for task 15: unlimited
  | Current stacksize for task 16: unlimited
  | Current stacksize for task 17: unlimited
  | Current stacksize for task 18: unlimited
  | Current stacksize for task 19: unlimited
  | Current stacksize for task 20: unlimited
  | Current stacksize for task 21: unlimited
  | Current stacksize for task 22: unlimited
  | Current stacksize for task 23: unlimited
  | Current stacksize for task 24: unlimited
  | Current stacksize for task 25: unlimited
  | Current stacksize for task 26: unlimited
  | Current stacksize for task 27: unlimited
  | Current stacksize for task 28: unlimited
  | Current stacksize for task 29: unlimited
  | Current stacksize for task 30: unlimited
  | Current stacksize for task 31: unlimited
  | Current stacksize for task 32: unlimited
  | Current stacksize for task 33: unlimited
  | Current stacksize for task 34: unlimited
  | Current stacksize for task 35: unlimited
  | Current stacksize for task 36: unlimited
  | Current stacksize for task 37: unlimited
  | Current stacksize for task 38: unlimited
  | Current stacksize for task 39: unlimited
 
  Consistency checks for the contents of control.in are next.
 
  MPI_IN_PLACE appears to work with this MPI implementation.
  | Keeping use_mpi_in_place .true. (see manual).
  Target number of points in a grid batch is not set. Defaulting to  100
  Method for grid partitioning is not set. Defaulting to parallel hash+maxmin partitioning.
  Batch size limit is not set. Defaulting to    200
  By default, will store active basis functions for each batch.
  If in need of memory, prune_basis_once .false. can be used to disable this option.
  communication_type for Hartree potential was not specified.
  Defaulting to calc_hartree .
  Pulay mixer: Number of initial linear mixing iterations not set.
  Defaulting to    0 iterations.
  Work space size for distributed Hartree potential not set.
  Defaulting to   0.200000E+03 MB.
  Algorithm-dependent basis array size parameters:
  | n_max_pulay                         :       12
  Maximum number of self-consistency iterations not provided.
  Presetting  1000 iterations.
  Presetting      1001 iterations before the initial mixing cycle
  is restarted anyway using the sc_init_iter criterion / keyword.
  Presetting a factor      1.000 between actual scf density residual
  and density convergence criterion sc_accuracy_rho below which sc_init_iter
  takes no effect.
 * No s.c.f. convergence criteria (sc_accuracy_*) were provided in control.in.
 * The run will proceed with a reasonable default guess, but please check whether.
 * the s.c.f. cycles seem to take too much or too little time.
  Geometry relaxation not requested: no relaxation will be performed.
  Forces evaluation will include force correction term due to incomplete self-consistency (default).
 * Notice: The s.c.f. convergence criterion sc_accuracy_rho was not provided.
 * We used to stop in this case, and ask the user to provide reasonable
 * scf convergence criteria. However, this led some users to employ criteria
 * that led to extremely long run times, e.g., for simple relaxation.
 * We now preset a default value for sc_accuracy_rho if it is not set.
 * You may still wish to check if this setting is too tight or too loose for your needs.
 * Based on n_atoms and forces and force-correction status, FHI-aims chose sc_accuracy_rho =  0.923760E-05 .
  Force calculation: scf convergence accuracy of forces not set.
  Defaulting to 'sc_accuracy_forces not_checked'.
  Handling of forces: Unphysical translation and rotation will be removed from forces.
  No accuracy limit for integral partition fn. given. Defaulting to  0.1000E-14.
  No threshold value for u(r) in integrations given. Defaulting to  0.1000E-05.
  No occupation type (smearing scheme) given. Defaulting to Gaussian broadening, width =  0.1000E-01 eV.
  The width will be adjusted in iteration number     2 of the first full s.c.f. cycle only.
  S.C.F. convergence parameters will be adjusted in iteration number     2 of the first full s.c.f. cycle only.
  No accuracy for occupation numbers given. Defaulting to  0.1000E-12.
  No threshold value for occupation numbers given. Defaulting to  0.0000E+00.
  No accuracy for fermi level given. Defaulting to  0.1000E-19.
  Maximum # of iterations to find E_F not set. Defaulting to  200.
  Preferred method for the eigenvalue solver ('KS_method') not specified in 'control.in'.
  Calling BLACS routine to test compilation state
  Since ScaLAPACK support is enabled, defaulting to ELPA (via ELSI).
  Will not use alltoall communication since running on < 1024 CPUs.
  Threshold for basis singularities not set.
  Default threshold for basis singularities:  0.1000E-04
  partition_type (choice of integration weights) for integrals was not specified.
  | Using a version of the partition function of Stratmann and coworkers ('stratmann_sparse').
  | At each grid point, the set of atoms used to build the partition table is smoothly restricted to
  | only those atoms whose free-atom density would be non-zero at that grid point.
  Partitioning for Hartree potential was not defined. Using partition_type for integrals.
  | Adjusted default value of keyword multip_moments_threshold to:       0.10000000E-11
  | This value may affect high angular momentum components of the Hartree potential in periodic systems.
  No q(lm)/r^(l+1) cutoff set for long-range Hartree potential.
  | Using default value of  0.100000E-09 .
  | Verify using the multipole_threshold keyword.
  Defaulting to new monopole extrapolation.
  Density update method: automatic selection selected.
  Charge integration errors on the 3D integration grid will be compensated
  by explicit normalization and distribution of residual charges.
  Use the "compensate_multipole_errors" flag to change this behaviour.
  Set 'collect_eigenvectors' to be '.true.' for use_density_matrix .false.
 
  Consistency checks for the contents of geometry.in are next.
 
  Number of empty states per atom not set in control.in - providing a guess from actual geometry.
  | Total number of empty states used during s.c.f. cycle:       24
  If you use a very high smearing, use empty_states (per atom!) in control.in to increase this value.

  Structure-dependent array size parameters: 
  | Maximum number of distinct radial functions  :       26
  | Maximum number of basis functions            :      312
  | Number of Kohn-Sham states (occupied + empty):       88
------------------------------------------------------------

------------------------------------------------------------
          Preparing all fixed parts of the calculation.
------------------------------------------------------------
  Determining machine precision:
    2.225073858507201E-308
  Setting up grids for atomic and cluster calculations.

  Creating wave function, potential, and density for free atoms.

  Species: S

  List of occupied orbitals and eigenvalues:
    n    l              occ      energy [Ha]    energy [eV]
    1    0           2.0000       -88.680731     -2413.1255
    2    0           2.0000        -7.781719      -211.7513
    3    0           2.0000        -0.633662       -17.2428
    2    1           6.0000        -5.751976      -156.5192
    3    1           4.0000        -0.257086        -6.9957


  Species: Mo

  List of occupied orbitals and eigenvalues:
    n    l              occ      energy [Ha]    energy [eV]
    1    0           2.0000      -745.344654    -20281.8600
    2    0           2.0000      -103.288246     -2810.6162
    3    0           2.0000       -17.516687      -476.6533
    4    0           2.0000        -2.358559       -64.1796
    5    0           1.0000        -0.145159        -3.9500
    2    1           6.0000       -92.308627     -2511.8455
    3    1           6.0000       -13.936005      -379.2180
    4    1           6.0000        -1.408138       -38.3174
    3    2          10.0000        -8.119011      -220.9295
    4    2           5.0000        -0.132984        -3.6187


  Adding cutoff potential to free-atom effective potential.
  Creating fixed part of basis set: Ionic, confined, hydrogenic.
 
  S                    ion:

  List of free ionic orbitals and eigenvalues:
    n    l      energy [Ha]    energy [eV]
    1    0       -89.703778     -2440.9640
    2    0        -8.775428      -238.7916
    3    0        -1.470343       -40.0101
    2    1        -6.747660      -183.6132
    3    1        -1.048627       -28.5346


  List of ionic basis orbitals and eigenvalues:
    n    l      energy [Ha]    energy [eV]    outer radius [A]
    3    2        -0.495605       -13.4861       5.386362
    3    0        -1.470336       -40.0099       3.967934

 
  S                    hydrogenic:
 
  List of hydrogenic basis orbitals: 
    n    l      effective z      eigenvalue [eV]  inner max. [A]     outer max. [A]     outer radius [A]   
    2    1         1.800000       -11.0118           1.168531           1.168531           5.452614
    4    3         7.000000       -41.6672           1.212182           1.212182           5.066981
    4    2         6.200000       -32.6848           0.582121           1.814567           5.386362
    5    4        10.800000       -63.4785           1.227092           1.227092           4.766538
 
 
  Mo                   ion:

  List of free ionic orbitals and eigenvalues:
    n    l      energy [Ha]    energy [eV]
    1    0      -746.048685    -20301.0176
    2    0      -103.980912     -2829.4646
    3    0       -18.206601      -495.4268
    4    0        -3.040545       -82.7374
    2    1       -93.001013     -2530.6863
    3    1       -14.625827      -397.9890
    4    1        -2.084855       -56.7318
    3    2        -8.808854      -239.7011
    4    2        -0.765435       -20.8285


  List of ionic basis orbitals and eigenvalues:
    n    l      energy [Ha]    energy [eV]    outer radius [A]
    5    1        -0.465587       -12.6693       5.456393
    5    0        -0.650331       -17.6964       5.390095

 
  Mo                   hydrogenic:
 
  List of hydrogenic basis orbitals: 
    n    l      effective z      eigenvalue [eV]  inner max. [A]     outer max. [A]     outer radius [A]   
    4    3         8.400000       -60.0010           1.009788           1.009788           4.487018
    3    2         2.800000       -11.8048           1.687401           1.687401           5.456393
    5    4        12.000000       -78.3687           1.100005           1.100005           4.432498
 
  Creating atomic-like basis functions for current effective potential.

  Species S                   :

  List of atomic basis orbitals and eigenvalues:
    n    l      energy [Ha]    energy [eV]    outer radius [A]
    1    0       -88.680731     -2413.1255       0.682391
    2    0        -7.781719      -211.7513       2.289014
    3    0        -0.633662       -17.2428       5.256262
    2    1        -5.751976      -156.5192       2.555240
    3    1        -0.257086        -6.9957       5.386362


  Species Mo                  :

  List of atomic basis orbitals and eigenvalues:
    n    l      energy [Ha]    energy [eV]    outer radius [A]
    1    0      -745.344654    -20281.8600       0.247552
    2    0      -103.288246     -2810.6162       0.682864
    3    0       -17.516687      -476.6533       1.626637
    4    0        -2.358559       -64.1796       4.220963
    5    0        -0.145159        -3.9500       5.456393
    2    1       -92.308627     -2511.8455       0.699766
    3    1       -13.936005      -379.2180       1.793761
    4    1        -1.408138       -38.3174       4.828511
    3    2        -8.119011      -220.9295       2.181285
    4    2        -0.132984        -3.6187       5.390095

  Assembling full basis from fixed parts.
  | Species S :   atomic orbital   1 s accepted.
  | Species S :   atomic orbital   2 s accepted.
  | Species S :    ionic orbital   3 s accepted.
  | Species S :   atomic orbital   3 s accepted.
  | Species S :   atomic orbital   2 p accepted.
  | Species S :   atomic orbital   3 p accepted.
  | Species S :    hydro orbital   2 p accepted.
  | Species S :    ionic orbital   3 d accepted.
  | Species S :    hydro orbital   4 d accepted.
  | Species S :    hydro orbital   4 f accepted.
  | Species S :    hydro orbital   5 g accepted.
  | Species Mo :   atomic orbital   1 s accepted.
  | Species Mo :   atomic orbital   2 s accepted.
  | Species Mo :   atomic orbital   3 s accepted.
  | Species Mo :   atomic orbital   4 s accepted.
  | Species Mo :    ionic orbital   5 s accepted.
  | Species Mo :   atomic orbital   5 s accepted.
  | Species Mo :   atomic orbital   2 p accepted.
  | Species Mo :   atomic orbital   3 p accepted.
  | Species Mo :   atomic orbital   4 p accepted.
  | Species Mo :    ionic orbital   5 p accepted.
  | Species Mo :   atomic orbital   3 d accepted.
  | Species Mo :   atomic orbital   4 d accepted.
  | Species Mo :    hydro orbital   3 d accepted.
  | Species Mo :    hydro orbital   4 f accepted.
  | Species Mo :    hydro orbital   5 g accepted.
 
  Basis size parameters after reduction:
  | Total number of radial functions:       26
  | Total number of basis functions :      312
 
  Per-task memory consumption for arrays in subroutine allocate_ext:
  |           9.566776MB.
  Testing on-site integration grid accuracy.
  |  Species  Function  <phi|h_atom|phi> (log., in eV)  <phi|h_atom|phi> (rad., in eV)
           1        1              -2413.1254568977              -2413.1254096663
           1        2               -211.7513411281               -211.7513404762
           1        3                -16.9725280787                -16.9725279206
           1        4                  7.6024436204                  7.6024549059
           1        5               -156.5192206929               -156.5192205451
           1        6                 -6.9959757887                 -6.9959777655
           1        7                  6.8896462808                  6.8895564741
           1        8                  6.0214250550                  6.0214220200
           1        9                 19.6206468977                 19.6206494558
           1       10                 24.7008710786                 24.7008710738
           1       11                 47.5292252001                 47.5292260486
           2       12             -20281.8599610543             -20281.8584300616
           2       13              -2810.6161812280              -2810.6161551921
           2       14               -476.6533163555               -476.6533136395
           2       15                -64.1796433667                -64.1796426456
           2       16                 -3.3691762756                 -3.3691802887
           2       17                  4.4704608512                  4.4699102345
           2       18              -2511.8455406047              -2511.8455385741
           2       19               -379.2179896350               -379.2179882338
           2       20                -38.3173891619                -38.3173886619
           2       21                  0.2493245095                  0.2492931069
           2       22               -220.9295301098               -220.9295297081
           2       23                 -3.6195697699                 -3.6195754704
           2       24                  7.1428000922                  7.1426882355
           2       25                 23.3975871087                 23.3975871819
           2       26                 50.2449608881                 50.2449608586

  Preparing densities etc. for the partition functions (integrals / Hartree potential).
 Frequency grid relative error: 0.12418110983958286E-009                        
   
 Will use parallel mode: atoms     
 BLACS block size: 3                                                 

  Preparations completed.
  max(cpu_time)          :      0.444 s.
  Wall clock time (cpu1) :      0.445 s.
------------------------------------------------------------

------------------------------------------------------------
          Begin self-consistency loop: Initialization.

          Date     :  20210927, Time     :  124941.972
------------------------------------------------------------

  Initializing index lists of integration centers etc. from given atomic structure:
  | Number of centers in hartree potential         :         8
  | Number of centers in hartree multipole         :         8
  | Number of centers in electron density summation:         8
  | Number of centers in basis integrals           :         8
  | Number of centers in integrals                 :         8
  | Number of centers in hamiltonian               :         8
  * Using 40 tasks for Scalapack Eigenvalue solver.
  Detailed listing of tasks and assigned k-points:
  (for non-periodic systems, the "k-point" denotes an internal label only)
   Task     0 k-point     1 on co1603
   Task     1 k-point     1 on co1603
   Task     2 k-point     1 on co1603
   Task     3 k-point     1 on co1603
   Task     4 k-point     1 on co1603
   Task     5 k-point     1 on co1603
   Task     6 k-point     1 on co1603
   Task     7 k-point     1 on co1603
   Task     8 k-point     1 on co1603
   Task     9 k-point     1 on co1603
   Task    10 k-point     1 on co1603
   Task    11 k-point     1 on co1603
   Task    12 k-point     1 on co1603
   Task    13 k-point     1 on co1603
   Task    14 k-point     1 on co1603
   Task    15 k-point     1 on co1603
   Task    16 k-point     1 on co1603
   Task    17 k-point     1 on co1603
   Task    18 k-point     1 on co1603
   Task    19 k-point     1 on co1603
   Task    20 k-point     1 on co1603
   Task    21 k-point     1 on co1603
   Task    22 k-point     1 on co1603
   Task    23 k-point     1 on co1603
   Task    24 k-point     1 on co1603
   Task    25 k-point     1 on co1603
   Task    26 k-point     1 on co1603
   Task    27 k-point     1 on co1603
   Task    28 k-point     1 on co1603
   Task    29 k-point     1 on co1603
   Task    30 k-point     1 on co1603
   Task    31 k-point     1 on co1603
   Task    32 k-point     1 on co1603
   Task    33 k-point     1 on co1603
   Task    34 k-point     1 on co1603
   Task    35 k-point     1 on co1603
   Task    36 k-point     1 on co1603
   Task    37 k-point     1 on co1603
   Task    38 k-point     1 on co1603
   Task    39 k-point     1 on co1603
  Tasks:    40 split into      8 X      5 BLACS grid
  Calculating block size based on n_basis =          312  max_nprow =            8  max_npcol =            5
  ScaLAPACK block size set to:           16
  Allocating        0.023 MB for ovlp
  Allocating        0.023 MB for ham
  Allocating        0.023 MB for eigenvec
  Required Scalapack workspace - INTEGER:            1  REAL:             1
  Partitioning the integration grid into batches with parallel hashing+maxmin method.
  | Number of batches:     2318
  | Maximal batch size:     200
  | Minimal batch size:      22
  | Average batch size:      84.563
  | Standard deviation of batch sizes:      21.026

  Integration load balanced across    40 MPI tasks.
  Work distribution over tasks is as follows:
  Task     0 has       4831 integration points.
  Task     1 has       4859 integration points.
  Task     2 has       4928 integration points.
  Task     3 has       4933 integration points.
  Task     4 has       4937 integration points.
  Task     5 has       4884 integration points.
  Task     6 has       4859 integration points.
  Task     7 has       4860 integration points.
  Task     8 has       4933 integration points.
  Task     9 has       4855 integration points.
  Task    10 has       4932 integration points.
  Task    11 has       4934 integration points.
  Task    12 has       4921 integration points.
  Task    13 has       4941 integration points.
  Task    14 has       4960 integration points.
  Task    15 has       4946 integration points.
  Task    16 has       4880 integration points.
  Task    17 has       4863 integration points.
  Task    18 has       4965 integration points.
  Task    19 has       4925 integration points.
  Task    20 has       4843 integration points.
  Task    21 has       4842 integration points.
  Task    22 has       4874 integration points.
  Task    23 has       4938 integration points.
  Task    24 has       4840 integration points.
  Task    25 has       4834 integration points.
  Task    26 has       4879 integration points.
  Task    27 has       4928 integration points.
  Task    28 has       4972 integration points.
  Task    29 has       4931 integration points.
  Task    30 has       4928 integration points.
  Task    31 has       4851 integration points.
  Task    32 has       4943 integration points.
  Task    33 has       4963 integration points.
  Task    34 has       4905 integration points.
  Task    35 has       4873 integration points.
  Task    36 has       4924 integration points.
  Task    37 has       4847 integration points.
  Task    38 has       4828 integration points.
  Task    39 has       4927 integration points.
  Initializing partition tables, free-atom densities, potentials, etc. across the integration grid (initialize_grid_storage).
  | initialize_grid_storage: Actual outermost partition radius vs. multipole_radius_free
  | (-- VB: in principle, multipole_radius_free should be larger, hence this output)
  | Species        1: Confinement radius =              6.000000000000000 AA, multipole_radius_free =              6.012827091137924 AA.
  | Species        1: outer_partition_radius set to              6.012827091137924 AA .
  | Species        2: Confinement radius =              6.000000000000000 AA, multipole_radius_free =              6.016994434057369 AA.
  | Species        2: outer_partition_radius set to              6.016994434057369 AA .
  | The sparse table of interatomic distances needs          0.71 kbyte instead of         0.51 kbyte of memory.
  | Using the partition_type stratmann_smoother will reduce your memory usage.
  | Net number of integration points:   196016
  | of which are non-zero points    :   181167
  Renormalizing the initial density to the exact electron count on the 3D integration grid.
  | Initial density: Formal number of electrons (from input files) :     128.0000000000
  | Integrated number of electrons on 3D grid     :     127.9999792476
  | Charge integration error                      :      -0.0000207524
  | Normalization factor for density and gradient :       1.0000001621
  Renormalizing the free-atom superposition density to the exact electron count on the 3D integration grid.
  | Formal number of electrons (from input files) :     128.0000000000
  | Integrated number of electrons on 3D grid     :     127.9999792476
  | Charge integration error                      :      -0.0000207524
  | Normalization factor for density and gradient :       1.0000001621
  Obtaining max. number of non-zero basis functions in each batch (get_n_compute_maxes).
  | Maximal number of non-zero basis functions:      303 in task     0
  | Maximal number of non-zero basis functions:      291 in task     1
  | Maximal number of non-zero basis functions:      298 in task     2
  | Maximal number of non-zero basis functions:      301 in task     3
  | Maximal number of non-zero basis functions:      297 in task     4
  | Maximal number of non-zero basis functions:      304 in task     5
  | Maximal number of non-zero basis functions:      292 in task     6
  | Maximal number of non-zero basis functions:      300 in task     7
  | Maximal number of non-zero basis functions:      295 in task     8
  | Maximal number of non-zero basis functions:      298 in task     9
  | Maximal number of non-zero basis functions:      292 in task    10
  | Maximal number of non-zero basis functions:      298 in task    11
  | Maximal number of non-zero basis functions:      303 in task    12
  | Maximal number of non-zero basis functions:      304 in task    13
  | Maximal number of non-zero basis functions:      302 in task    14
  | Maximal number of non-zero basis functions:      303 in task    15
  | Maximal number of non-zero basis functions:      295 in task    16
  | Maximal number of non-zero basis functions:      291 in task    17
  | Maximal number of non-zero basis functions:      298 in task    18
  | Maximal number of non-zero basis functions:      304 in task    19
  | Maximal number of non-zero basis functions:      304 in task    20
  | Maximal number of non-zero basis functions:      302 in task    21
  | Maximal number of non-zero basis functions:      299 in task    22
  | Maximal number of non-zero basis functions:      302 in task    23
  | Maximal number of non-zero basis functions:      298 in task    24
  | Maximal number of non-zero basis functions:      299 in task    25
  | Maximal number of non-zero basis functions:      298 in task    26
  | Maximal number of non-zero basis functions:      302 in task    27
  | Maximal number of non-zero basis functions:      304 in task    28
  | Maximal number of non-zero basis functions:      292 in task    29
  | Maximal number of non-zero basis functions:      302 in task    30
  | Maximal number of non-zero basis functions:      292 in task    31
  | Maximal number of non-zero basis functions:      300 in task    32
  | Maximal number of non-zero basis functions:      299 in task    33
  | Maximal number of non-zero basis functions:      298 in task    34
  | Maximal number of non-zero basis functions:      297 in task    35
  | Maximal number of non-zero basis functions:      298 in task    36
  | Maximal number of non-zero basis functions:      304 in task    37
  | Maximal number of non-zero basis functions:      303 in task    38
  | Maximal number of non-zero basis functions:      296 in task    39
  Selecting the method for density update.
  Loop over occupied states selected for charge density update.
  Allocating        0.209 MB for KS_eigenvector
  Integrating Hamiltonian matrix: batch-based integration.
  Time summed over all CPUs for integration: real work        2.408 s, elapsed        2.492 s
  Integrating overlap matrix.
  Time summed over all CPUs for integration: real work        0.892 s, elapsed        0.941 s
  Deallocating overlap matrix.

  Updating Kohn-Sham eigenvalues and eigenvectors using ELSI and the ELPA eigensolver.
  Overlap matrix is not singular
  | Lowest and highest eigenvalues :  0.4517E-03,  0.4903E+01
  Finished singularity check of overlap matrix
  | Time :     0.012 s
  Starting ELPA eigensolver
  Finished Cholesky decomposition
  | Time :     0.004 s
  Finished transformation to standard eigenproblem
  | Time :     0.003 s
  Finished solving standard eigenproblem
  | Time :     0.009 s
  Finished back-transformation of eigenvectors
  | Time :     0.001 s

  Obtaining occupation numbers and chemical potential using ELSI.
  | Chemical potential (Fermi level):    -5.59044992 eV
  Writing Kohn-Sham eigenvalues.

  State    Occupation    Eigenvalue [Ha]    Eigenvalue [eV]
      1       2.00000         -88.694291        -2413.49445
      2       2.00000         -88.694291        -2413.49444
      3       2.00000         -88.694290        -2413.49444
      4       2.00000         -88.694290        -2413.49444
      5       2.00000         -88.694290        -2413.49442
      6       2.00000         -88.694286        -2413.49433
      7       2.00000         -88.694250        -2413.49334
      8       2.00000         -88.694243        -2413.49316
      9       2.00000          -7.797447         -212.17932
     10       2.00000          -7.797436         -212.17903
     11       2.00000          -7.797424         -212.17870
     12       2.00000          -7.797405         -212.17818
     13       2.00000          -7.797393         -212.17786
     14       2.00000          -7.797377         -212.17744
     15       2.00000          -7.797368         -212.17719
     16       2.00000          -7.797336         -212.17630
     17       2.00000          -5.768634         -156.97252
     18       2.00000          -5.768596         -156.97148
     19       2.00000          -5.768575         -156.97092
     20       2.00000          -5.768481         -156.96835
     21       2.00000          -5.768474         -156.96816
     22       2.00000          -5.768365         -156.96520
     23       2.00000          -5.768354         -156.96490
     24       2.00000          -5.768295         -156.96330
     25       2.00000          -5.767520         -156.94220
     26       2.00000          -5.767491         -156.94142
     27       2.00000          -5.767475         -156.94097
     28       2.00000          -5.767424         -156.93958
     29       2.00000          -5.767416         -156.93936
     30       2.00000          -5.767374         -156.93824
     31       2.00000          -5.767373         -156.93820
     32       2.00000          -5.767334         -156.93715
     33       2.00000          -5.766422         -156.91232
     34       2.00000          -5.766421         -156.91229
     35       2.00000          -5.766420         -156.91227
     36       2.00000          -5.766419         -156.91224
     37       2.00000          -5.766418         -156.91221
     38       2.00000          -5.766415         -156.91215
     39       2.00000          -5.766377         -156.91110
     40       2.00000          -5.766370         -156.91090
     41       2.00000          -0.821544          -22.35535
     42       2.00000          -0.792695          -21.57032
     43       2.00000          -0.792551          -21.56640
     44       2.00000          -0.716355          -19.49302
     45       2.00000          -0.716230          -19.48961
     46       2.00000          -0.612716          -16.67286
     47       2.00000          -0.612598          -16.66964
     48       2.00000          -0.542825          -14.77101
     49       2.00000          -0.449925          -12.24307
     50       2.00000          -0.425291          -11.57275
     51       2.00000          -0.425260          -11.57191
     52       2.00000          -0.393280          -10.70170
     53       2.00000          -0.368308          -10.02218
     54       2.00000          -0.368252          -10.02064
     55       2.00000          -0.361871           -9.84701
     56       2.00000          -0.361825           -9.84577
     57       2.00000          -0.329763           -8.97331
     58       2.00000          -0.277802           -7.55939
     59       2.00000          -0.277775           -7.55863
     60       2.00000          -0.270291           -7.35499
     61       2.00000          -0.270226           -7.35323
     62       2.00000          -0.262640           -7.14679
     63       2.00000          -0.262588           -7.14539
     64       2.00000          -0.257142           -6.99718
     65       0.00000          -0.132435           -3.60374
     66       0.00000          -0.132381           -3.60227
     67       0.00000          -0.120039           -3.26642
     68       0.00000          -0.085933           -2.33835
     69       0.00000          -0.084892           -2.31004
     70       0.00000          -0.084815           -2.30794
     71       0.00000          -0.082736           -2.25137
     72       0.00000          -0.082634           -2.24859
     73       0.00000           0.028168            0.76650
     74       0.00000           0.049431            1.34508
     75       0.00000           0.049475            1.34628
     76       0.00000           0.064372            1.75165
     77       0.00000           0.064388            1.75210
     78       0.00000           0.079689            2.16846
     79       0.00000           0.079707            2.16894
     80       0.00000           0.091205            2.48182
     81       0.00000           0.093599            2.54697
     82       0.00000           0.093711            2.55001
     83       0.00000           0.115077            3.13142
     84       0.00000           0.117480            3.19679
     85       0.00000           0.117516            3.19778
     86       0.00000           0.122976            3.34635
     87       0.00000           0.123030            3.34783
     88       0.00000           0.141570            3.85231

  Highest occupied state (VBM) at     -6.99717989 eV
  | Occupation number:      2.00000000

  Lowest unoccupied state (CBM) at    -3.60373672 eV
  | Occupation number:      0.00000000

  Overall HOMO-LUMO gap:      3.39344317 eV.
  Calculating total energy contributions from superposition of free atom densities.

  Total energy components:
  | Sum of eigenvalues            :       -1842.64322545 Ha      -50140.87330402 eV
  | XC energy correction          :        -204.89907991 Ha       -5575.58764699 eV
  | XC potential correction       :         264.82314999 Ha        7206.20455886 eV
  | Free-atom electrostatic energy:       -1415.63719445 Ha      -38521.44801080 eV
  | Hartree energy correction     :           0.00000000 Ha           0.00000000 eV
  | vdW energy correction         :           0.00000000 Ha           0.00000000 eV
  | Entropy correction            :           0.00000000 Ha           0.00000000 eV
  | ---------------------------
  | Total energy                  :       -3198.35634982 Ha      -87031.70440295 eV
  | Total energy, T -> 0          :       -3198.35634982 Ha      -87031.70440295 eV  <-- do not rely on this value for anything but (periodic) metals
  | Electronic free energy        :       -3198.35634982 Ha      -87031.70440295 eV

  Derived energy quantities:
  | Kinetic energy                :        3210.59744700 Ha       87364.80160500 eV
  | Electrostatic energy          :       -6204.05471691 Ha     -168820.91836096 eV
  | Energy correction for multipole
  | error in Hartree potential    :           0.00000000 Ha           0.00000000 eV
  | Sum of eigenvalues per atom                           :       -6267.60916300 eV
  | Total energy (T->0) per atom                          :      -10878.96305037 eV  <-- do not rely on this value for anything but (periodic) metals
  | Electronic free energy per atom                       :      -10878.96305037 eV
  Initialize hartree_potential_storage
  Max. number of atoms included in rho_multipole:            8

  End scf initialization - timings             :  max(cpu_time)    wall_clock(cpu1)
  | Time for scf. initialization               :        0.236 s           0.239 s
  | Boundary condition initialization          :        0.000 s           0.000 s
  | Integration                                :        0.090 s           0.090 s
  | Solution of K.-S. eqns.                    :        0.031 s           0.033 s
  | Grid partitioning                          :        0.086 s           0.086 s
  | Preloading free-atom quantities on grid    :        0.019 s           0.020 s
  | Free-atom superposition energy             :        0.005 s           0.005 s
  | Total energy evaluation                    :        0.000 s           0.000 s

  Partial memory accounting:
  | Current value for overall tracked memory usage:
  |   Minimum:        0.624 MB (on task 24)
  |   Maximum:        0.653 MB (on task  0)
  |   Average:        0.639 MB
  | Peak value for overall tracked memory usage:
  |   Minimum:        2.990 MB (on task 29 after allocating wave)
  |   Maximum:        3.129 MB (on task  5 after allocating wave)
  |   Average:        3.068 MB
  | Largest tracked array allocation so far:
  |   Minimum:        0.646 MB (hamiltonian_shell on task  1)
  |   Maximum:        0.916 MB (all_coords on task 21)
  |   Average:        0.706 MB
  Note:  These values currently only include a subset of arrays which are explicitly tracked.
  The "true" memory usage will be greater.
------------------------------------------------------------
  Evaluating new KS density.
  Integration grid: deviation in total charge (<rho> - N_e) =   2.842171E-14

  Time for density update prior                :  max(cpu_time)    wall_clock(cpu1)
  | self-consistency iterative process         :        0.050 s           0.050 s

------------------------------------------------------------
          Begin self-consistency iteration #    1

  Date     :  20210927, Time     :  124942.262
------------------------------------------------------------
  Pulay mixing of updated and previous charge densities.
  Renormalizing the density to the exact electron count on the 3D integration grid.
  | Formal number of electrons (from input files) :     128.0000000000
  | Integrated number of electrons on 3D grid     :     128.0000000000
  | Charge integration error                      :      -0.0000000000
  | Normalization factor for density and gradient :       1.0000000000

  Evaluating partitioned Hartree potential by multipole expansion.
  | Original multipole sum: apparent total charge =  -0.324986E-13
  | Sum of charges compensated after spline to logarithmic grids =   0.192259E-06
  | Analytical far-field extrapolation by fixed multipoles:
  | Hartree multipole sum: apparent total charge =  -0.324939E-13
  Summing up the Hartree potential.
  Time summed over all CPUs for potential: real work        0.872 s, elapsed        0.911 s
  | RMS charge density error from multipole expansion :   0.577407E-03

  Integrating Hamiltonian matrix: batch-based integration.
  Time summed over all CPUs for integration: real work        2.367 s, elapsed        2.464 s

  Updating Kohn-Sham eigenvalues and eigenvectors using ELSI and the ELPA eigensolver.
  Starting ELPA eigensolver
  Finished transformation to standard eigenproblem
  | Time :     0.001 s
  Finished solving standard eigenproblem
  | Time :     0.008 s
  Finished back-transformation of eigenvectors
  | Time :     0.000 s

  Obtaining occupation numbers and chemical potential using ELSI.
  | Chemical potential (Fermi level):    -5.53578633 eV
  Writing Kohn-Sham eigenvalues.

  State    Occupation    Eigenvalue [Ha]    Eigenvalue [eV]
      1       2.00000         -88.690630        -2413.39483
      2       2.00000         -88.690618        -2413.39451
      3       2.00000         -88.690617        -2413.39448
      4       2.00000         -88.690616        -2413.39444
      5       2.00000         -88.690615        -2413.39443
      6       2.00000         -88.690615        -2413.39442
      7       2.00000         -88.690594        -2413.39385
      8       2.00000         -88.690569        -2413.39317
      9       2.00000          -7.793971         -212.08475
     10       2.00000          -7.793962         -212.08450
     11       2.00000          -7.793951         -212.08418
     12       2.00000          -7.793931         -212.08365
     13       2.00000          -7.793918         -212.08330
     14       2.00000          -7.793902         -212.08285
     15       2.00000          -7.793897         -212.08272
     16       2.00000          -7.793864         -212.08183
     17       2.00000          -5.765549         -156.88858
     18       2.00000          -5.765511         -156.88753
     19       2.00000          -5.765493         -156.88704
     20       2.00000          -5.765396         -156.88441
     21       2.00000          -5.765387         -156.88415
     22       2.00000          -5.765280         -156.88124
     23       2.00000          -5.765267         -156.88091
     24       2.00000          -5.765214         -156.87945
     25       2.00000          -5.764152         -156.85056
     26       2.00000          -5.764126         -156.84985
     27       2.00000          -5.764111         -156.84945
     28       2.00000          -5.764060         -156.84806
     29       2.00000          -5.764050         -156.84777
     30       2.00000          -5.764008         -156.84664
     31       2.00000          -5.764002         -156.84647
     32       2.00000          -5.763969         -156.84558
     33       2.00000          -5.762369         -156.80203
     34       2.00000          -5.762359         -156.80176
     35       2.00000          -5.762358         -156.80173
     36       2.00000          -5.762357         -156.80170
     37       2.00000          -5.762356         -156.80167
     38       2.00000          -5.762355         -156.80165
     39       2.00000          -5.762327         -156.80090
     40       2.00000          -5.762306         -156.80034
     41       2.00000          -0.819046          -22.28738
     42       2.00000          -0.790171          -21.50164
     43       2.00000          -0.790028          -21.49777
     44       2.00000          -0.713767          -19.42259
     45       2.00000          -0.713643          -19.41922
     46       2.00000          -0.610007          -16.59913
     47       2.00000          -0.609889          -16.59593
     48       2.00000          -0.539896          -14.69132
     49       2.00000          -0.447650          -12.18118
     50       2.00000          -0.422812          -11.50531
     51       2.00000          -0.422782          -11.50449
     52       2.00000          -0.390878          -10.63634
     53       2.00000          -0.365796           -9.95382
     54       2.00000          -0.365737           -9.95220
     55       2.00000          -0.359472           -9.78172
     56       2.00000          -0.359427           -9.78050
     57       2.00000          -0.327028           -8.89887
     58       2.00000          -0.275003           -7.48322
     59       2.00000          -0.274974           -7.48243
     60       2.00000          -0.267598           -7.28172
     61       2.00000          -0.267531           -7.27988
     62       2.00000          -0.259799           -7.06950
     63       2.00000          -0.259747           -7.06808
     64       2.00000          -0.254356           -6.92137
     65       0.00000          -0.130201           -3.54295
     66       0.00000          -0.130147           -3.54149
     67       0.00000          -0.117699           -3.20275
     68       0.00000          -0.083764           -2.27934
     69       0.00000          -0.082707           -2.25058
     70       0.00000          -0.082629           -2.24845
     71       0.00000          -0.080312           -2.18540
     72       0.00000          -0.080208           -2.18258
     73       0.00000           0.030161            0.82073
     74       0.00000           0.051417            1.39914
     75       0.00000           0.051461            1.40031
     76       0.00000           0.066184            1.80095
     77       0.00000           0.066200            1.80138
     78       0.00000           0.081207            2.20975
     79       0.00000           0.081224            2.21022
     80       0.00000           0.092738            2.52354
     81       0.00000           0.095402            2.59602
     82       0.00000           0.095628            2.60218
     83       0.00000           0.117093            3.18626
     84       0.00000           0.119436            3.25003
     85       0.00000           0.119473            3.25103
     86       0.00000           0.124844            3.39717
     87       0.00000           0.124899            3.39868
     88       0.00000           0.143572            3.90680

  Highest occupied state (VBM) at     -6.92137436 eV
  | Occupation number:      2.00000000

  Lowest unoccupied state (CBM) at    -3.54295123 eV
  | Occupation number:      0.00000000

  Overall HOMO-LUMO gap:      3.37842313 eV.

  Total energy components:
  | Sum of eigenvalues            :       -1842.23533658 Ha      -50129.77408309 eV
  | XC energy correction          :        -204.92304379 Ha       -5576.23973757 eV
  | XC potential correction       :         264.85399720 Ha        7207.04395417 eV
  | Free-atom electrostatic energy:       -1415.63719445 Ha      -38521.44801080 eV
  | Hartree energy correction     :          -0.41162041 Ha         -11.20076135 eV
  | vdW energy correction         :           0.00000000 Ha           0.00000000 eV
  | Entropy correction            :           0.00000000 Ha           0.00000000 eV
  | ---------------------------
  | Total energy                  :       -3198.35319804 Ha      -87031.61863864 eV
  | Total energy, T -> 0          :       -3198.35319804 Ha      -87031.61863864 eV  <-- do not rely on this value for anything but (periodic) metals
  | Electronic free energy        :       -3198.35319804 Ha      -87031.61863864 eV

  Derived energy quantities:
  | Kinetic energy                :        3210.66636081 Ha       87366.67684524 eV
  | Electrostatic energy          :       -6204.09651506 Ha     -168822.05574631 eV
  | Energy correction for multipole
  | error in Hartree potential    :          -0.00027149 Ha          -0.00738764 eV
  | Sum of eigenvalues per atom                           :       -6266.22176039 eV
  | Total energy (T->0) per atom                          :      -10878.95232983 eV  <-- do not rely on this value for anything but (periodic) metals
  | Electronic free energy per atom                       :      -10878.95232983 eV
  Evaluating new KS density.
  Integration grid: deviation in total charge (<rho> - N_e) =   2.842171E-14

  Self-consistency convergence accuracy:
  | Change of charge density      :  0.2418E+00
  | Change of sum of eigenvalues  :  0.1110E+02 eV
  | Change of total energy        :  0.8576E-01 eV


------------------------------------------------------------
  End self-consistency iteration #     1       :  max(cpu_time)    wall_clock(cpu1)
  | Time for this iteration                    :        0.152 s           0.153 s
  | Charge density update                      :        0.048 s           0.048 s
  | Density mixing                             :        0.001 s           0.001 s
  | Hartree multipole update                   :        0.004 s           0.004 s
  | Hartree multipole summation                :        0.024 s           0.024 s
  | Integration                                :        0.063 s           0.063 s
  | Solution of K.-S. eqns.                    :        0.012 s           0.012 s
  | Total energy evaluation                    :        0.001 s           0.000 s

  Partial memory accounting:
  | Current value for overall tracked memory usage:
  |   Minimum:        0.624 MB (on task 24)
  |   Maximum:        0.653 MB (on task  0)
  |   Average:        0.639 MB
  | Peak value for overall tracked memory usage:
  |   Minimum:        2.990 MB (on task 29 after allocating wave)
  |   Maximum:        3.129 MB (on task  5 after allocating wave)
  |   Average:        3.068 MB
  | Largest tracked array allocation so far:
  |   Minimum:        1.332 MB (gradient_basis_wave on task  1)
  |   Maximum:        1.392 MB (gradient_basis_wave on task  5)
  |   Average:        1.368 MB
  Note:  These values currently only include a subset of arrays which are explicitly tracked.
  The "true" memory usage will be greater.
------------------------------------------------------------

------------------------------------------------------------
          Begin self-consistency iteration #    2

  Date     :  20210927, Time     :  124942.416
------------------------------------------------------------
  Pulay mixing of updated and previous charge densities.
  Renormalizing the density to the exact electron count on the 3D integration grid.
  | Formal number of electrons (from input files) :     128.0000000000
  | Integrated number of electrons on 3D grid     :     128.0000000000
  | Charge integration error                      :      -0.0000000000
  | Normalization factor for density and gradient :       1.0000000000

  Evaluating partitioned Hartree potential by multipole expansion.
  | Original multipole sum: apparent total charge =  -0.118115E-12
  | Sum of charges compensated after spline to logarithmic grids =   0.105771E-05
  | Analytical far-field extrapolation by fixed multipoles:
  | Hartree multipole sum: apparent total charge =  -0.118135E-12
  Summing up the Hartree potential.
  Time summed over all CPUs for potential: real work        0.828 s, elapsed        0.872 s
  | RMS charge density error from multipole expansion :   0.514824E-02

  Integrating Hamiltonian matrix: batch-based integration.
  Time summed over all CPUs for integration: real work        2.342 s, elapsed        2.434 s

  Updating Kohn-Sham eigenvalues and eigenvectors using ELSI and the ELPA eigensolver.
  Starting ELPA eigensolver
  Finished transformation to standard eigenproblem
  | Time :     0.001 s
  Finished solving standard eigenproblem
  | Time :     0.008 s
  Finished back-transformation of eigenvectors
  | Time :     0.000 s

  Obtaining occupation numbers and chemical potential using ELSI.
  | Chemical potential (Fermi level):    -5.12134530 eV
  Highest occupied state (VBM) at     -6.34488127 eV
  | Occupation number:      2.00000000

  Lowest unoccupied state (CBM) at    -3.08307826 eV
  | Occupation number:      0.00000000

  Overall HOMO-LUMO gap:      3.26180301 eV.

  Checking to see if s.c.f. parameters should be adjusted.
  Kept the default occupation width. Value:   0.010000 eV.

  Total energy components:
  | Sum of eigenvalues            :       -1839.25637574 Ha      -50048.71243435 eV
  | XC energy correction          :        -205.12358156 Ha       -5581.69664779 eV
  | XC potential correction       :         265.11072011 Ha        7214.02973993 eV
  | Free-atom electrostatic energy:       -1415.63719445 Ha      -38521.44801080 eV
  | Hartree energy correction     :          -3.43726817 Ha         -93.53282592 eV
  | vdW energy correction         :           0.00000000 Ha           0.00000000 eV
  | Entropy correction            :           0.00000000 Ha           0.00000000 eV
  | ---------------------------
  | Total energy                  :       -3198.34369982 Ha      -87031.36017892 eV
  | Total energy, T -> 0          :       -3198.34369982 Ha      -87031.36017892 eV  <-- do not rely on this value for anything but (periodic) metals
  | Electronic free energy        :       -3198.34369982 Ha      -87031.36017892 eV

  Derived energy quantities:
  | Kinetic energy                :        3211.02920044 Ha       87376.55021383 eV
  | Electrostatic energy          :       -6204.24931870 Ha     -168826.21374497 eV
  | Energy correction for multipole
  | error in Hartree potential    :          -0.00255242 Ha          -0.06945494 eV
  | Sum of eigenvalues per atom                           :       -6256.08905429 eV
  | Total energy (T->0) per atom                          :      -10878.92002237 eV  <-- do not rely on this value for anything but (periodic) metals
  | Electronic free energy per atom                       :      -10878.92002237 eV
  Evaluating new KS density.
  Integration grid: deviation in total charge (<rho> - N_e) =   5.684342E-14

  Self-consistency convergence accuracy:
  | Change of charge density      :  0.2149E+00
  | Change of sum of eigenvalues  :  0.8106E+02 eV
  | Change of total energy        :  0.2585E+00 eV


------------------------------------------------------------
  End self-consistency iteration #     2       :  max(cpu_time)    wall_clock(cpu1)
  | Time for this iteration                    :        0.147 s           0.147 s
  | Charge density update                      :        0.047 s           0.047 s
  | Density mixing                             :        0.001 s           0.001 s
  | Hartree multipole update                   :        0.002 s           0.003 s
  | Hartree multipole summation                :        0.022 s           0.022 s
  | Integration                                :        0.062 s           0.062 s
  | Solution of K.-S. eqns.                    :        0.011 s           0.011 s
  | Total energy evaluation                    :        0.000 s           0.000 s

  Partial memory accounting:
  | Current value for overall tracked memory usage:
  |   Minimum:        0.625 MB (on task 24)
  |   Maximum:        0.654 MB (on task  0)
  |   Average:        0.640 MB
  | Peak value for overall tracked memory usage:
  |   Minimum:        2.990 MB (on task 29 after allocating wave)
  |   Maximum:        3.129 MB (on task  5 after allocating wave)
  |   Average:        3.068 MB
  | Largest tracked array allocation so far:
  |   Minimum:        1.332 MB (gradient_basis_wave on task  1)
  |   Maximum:        1.392 MB (gradient_basis_wave on task  5)
  |   Average:        1.368 MB
  Note:  These values currently only include a subset of arrays which are explicitly tracked.
  The "true" memory usage will be greater.
------------------------------------------------------------

------------------------------------------------------------
          Begin self-consistency iteration #    3

  Date     :  20210927, Time     :  124942.564
------------------------------------------------------------
  Pulay mixing of updated and previous charge densities.
  Renormalizing the density to the exact electron count on the 3D integration grid.
  | Formal number of electrons (from input files) :     128.0000000000
  | Integrated number of electrons on 3D grid     :     128.0000000000
  | Charge integration error                      :       0.0000000000
  | Normalization factor for density and gradient :       1.0000000000

  Evaluating partitioned Hartree potential by multipole expansion.
  | Original multipole sum: apparent total charge =   0.239478E-13
  | Sum of charges compensated after spline to logarithmic grids =   0.951299E-06
  | Analytical far-field extrapolation by fixed multipoles:
  | Hartree multipole sum: apparent total charge =   0.239678E-13
  Summing up the Hartree potential.
  Time summed over all CPUs for potential: real work        0.823 s, elapsed        0.846 s
  | RMS charge density error from multipole expansion :   0.551874E-02

  Integrating Hamiltonian matrix: batch-based integration.
  Time summed over all CPUs for integration: real work        2.343 s, elapsed        2.434 s

  Updating Kohn-Sham eigenvalues and eigenvectors using ELSI and the ELPA eigensolver.
  Starting ELPA eigensolver
  Finished transformation to standard eigenproblem
  | Time :     0.001 s
  Finished solving standard eigenproblem
  | Time :     0.008 s
  Finished back-transformation of eigenvectors
  | Time :     0.000 s

  Obtaining occupation numbers and chemical potential using ELSI.
  | Chemical potential (Fermi level):    -5.22186616 eV
  Highest occupied state (VBM) at     -6.47941976 eV
  | Occupation number:      2.00000000

  Lowest unoccupied state (CBM) at    -3.21127622 eV
  | Occupation number:      0.00000000

  Overall HOMO-LUMO gap:      3.26814354 eV.

  Total energy components:
  | Sum of eigenvalues            :       -1840.52871936 Ha      -50083.33466583 eV
  | XC energy correction          :        -205.04930769 Ha       -5579.67555312 eV
  | XC potential correction       :         265.01276432 Ha        7211.36422724 eV
  | Free-atom electrostatic energy:       -1415.63719445 Ha      -38521.44801080 eV
  | Hartree energy correction     :          -2.14076719 Ha         -58.25323906 eV
  | vdW energy correction         :           0.00000000 Ha           0.00000000 eV
  | Entropy correction            :           0.00000000 Ha           0.00000000 eV
  | ---------------------------
  | Total energy                  :       -3198.34322438 Ha      -87031.34724156 eV
  | Total energy, T -> 0          :       -3198.34322438 Ha      -87031.34724156 eV  <-- do not rely on this value for anything but (periodic) metals
  | Electronic free energy        :       -3198.34322438 Ha      -87031.34724156 eV

  Derived energy quantities:
  | Kinetic energy                :        3210.18954544 Ha       87353.70203876 eV
  | Electrostatic energy          :       -6203.48346212 Ha     -168805.37372720 eV
  | Energy correction for multipole
  | error in Hartree potential    :          -0.00311493 Ha          -0.08476150 eV
  | Sum of eigenvalues per atom                           :       -6260.41683323 eV
  | Total energy (T->0) per atom                          :      -10878.91840520 eV  <-- do not rely on this value for anything but (periodic) metals
  | Electronic free energy per atom                       :      -10878.91840520 eV
  Evaluating new KS density.
  Integration grid: deviation in total charge (<rho> - N_e) =   5.684342E-14

  Self-consistency convergence accuracy:
  | Change of charge density      :  0.2696E-01
  | Change of sum of eigenvalues  : -0.3462E+02 eV
  | Change of total energy        :  0.1294E-01 eV


------------------------------------------------------------
  End self-consistency iteration #     3       :  max(cpu_time)    wall_clock(cpu1)
[...]
     56       2.00000          -0.345170           -9.39257
     57       2.00000          -0.310311           -8.44399
     58       2.00000          -0.258218           -7.02646
     59       2.00000          -0.258184           -7.02554
     60       2.00000          -0.251388           -6.84062
     61       2.00000          -0.251314           -6.83860
     62       2.00000          -0.242550           -6.60012
     63       2.00000          -0.242502           -6.59881
     64       2.00000          -0.237542           -6.46385
     65       0.00000          -0.117244           -3.19038
     66       0.00000          -0.117190           -3.18891
     67       0.00000          -0.103966           -2.82907
     68       0.00000          -0.071408           -1.94312
     69       0.00000          -0.069888           -1.90174
     70       0.00000          -0.069805           -1.89950
     71       0.00000          -0.066025           -1.79663
     72       0.00000          -0.065916           -1.79366
     73       0.00000           0.042736            1.16291
     74       0.00000           0.063535            1.72888
     75       0.00000           0.063576            1.72999
     76       0.00000           0.077434            2.10709
     77       0.00000           0.077449            2.10750
     78       0.00000           0.090331            2.45804
     79       0.00000           0.090349            2.45853
     80       0.00000           0.101945            2.77405
     81       0.00000           0.106016            2.88486
     82       0.00000           0.108126            2.94227
     83       0.00000           0.129683            3.52884
     84       0.00000           0.131290            3.57258
     85       0.00000           0.131328            3.57361
     86       0.00000           0.136282            3.70842
     87       0.00000           0.136340            3.70999
     88       0.00000           0.155561            4.23303

  Highest occupied state (VBM) at     -6.46384506 eV
  | Occupation number:      2.00000000

  Lowest unoccupied state (CBM) at    -3.19037501 eV
  | Occupation number:      0.00000000

  Overall HOMO-LUMO gap:      3.27347005 eV.
  | Chemical Potential                          :    -5.20952789 eV

  Self-consistency cycle converged.


------------------------------------------------------------
  End self-consistency iteration #    12       :  max(cpu_time)    wall_clock(cpu1)
  | Time for this iteration                    :        0.433 s           0.433 s
  | Charge density & force component update    :        0.237 s           0.237 s
  | Density mixing                             :        0.003 s           0.003 s
  | Hartree multipole update                   :        0.002 s           0.002 s
  | Hartree multipole summation                :        0.070 s           0.070 s
  | Hartree pot. SCF incomplete forces         :        0.048 s           0.048 s
  | Integration                                :        0.062 s           0.062 s
  | Solution of K.-S. eqns.                    :        0.009 s           0.009 s
  | Total energy evaluation                    :        0.000 s           0.000 s

  Partial memory accounting:
  | Current value for overall tracked memory usage:
  |   Minimum:        0.628 MB (on task 24)
  |   Maximum:        0.658 MB (on task  0)
  |   Average:        0.643 MB
  | Peak value for overall tracked memory usage:
  |   Minimum:        5.560 MB (on task 29 after allocating hessian_basis_wave)
  |   Maximum:        5.772 MB (on task  5 after allocating hessian_basis_wave)
  |   Average:        5.681 MB
  | Largest tracked array allocation so far:
  |   Minimum:        2.664 MB (hessian_basis_wave on task  1)
  |   Maximum:        2.783 MB (hessian_basis_wave on task  5)
  |   Average:        2.737 MB
  Note:  These values currently only include a subset of arrays which are explicitly tracked.
  The "true" memory usage will be greater.
------------------------------------------------------------
  Obtaining max. number of non-zero basis functions in each batch .
  Evaluating KS electron density on previously omitted grid points.

  Entering Libmbd.
  Libmbd: VdW method: mbd-nl
  Libmbd: Evaluating kinetic energy density...

  Evaluating density matrix
  Finished density matrix calculation
  | Time :     0.002 s

  Libmbd: Performing Hirshfeld analysis...
  Libmbd: Calculating MBD energy...
  Libmbd: Evaluated energy: -0.10398284308722694E-001

  Leaving Libmbd.


  Total energy components:
  | Sum of eigenvalues            :       -1840.39797800 Ha      -50079.77701237 eV
  | XC energy correction          :        -205.05788931 Ha       -5579.90907091 eV
  | XC potential correction       :         265.02387328 Ha        7211.66651763 eV
  | Free-atom electrostatic energy:       -1415.63719445 Ha      -38521.44801080 eV
  | Hartree energy correction     :          -2.27401844 Ha         -61.87919010 eV
  | vdW energy correction         :          -0.01039828 Ha          -0.28295171 eV
  | Entropy correction            :           0.00000000 Ha           0.00000000 eV
  | ---------------------------
  | Total energy                  :       -3198.35360521 Ha      -87031.62971826 eV
  | Total energy, T -> 0          :       -3198.35360521 Ha      -87031.62971826 eV  <-- do not rely on this value for anything but (periodic) metals
  | Electronic free energy        :       -3198.35360521 Ha      -87031.62971826 eV

  Derived energy quantities:
  | Kinetic energy                :        3210.27558100 Ha       87356.04318561 eV
  | Electrostatic energy          :       -6203.56089861 Ha     -168807.48088125 eV
  | Energy correction for multipole
  | error in Hartree potential    :          -0.00319744 Ha          -0.08700675 eV
  | Sum of eigenvalues per atom                           :       -6259.97212655 eV
  | Total energy (T->0) per atom                          :      -10878.95371478 eV  <-- do not rely on this value for anything but (periodic) metals
  | Electronic free energy per atom                       :      -10878.95371478 eV

  atomic forces [eV/Ang]:
  -----------------------
  atom #    1
   Hellmann-Feynman              :  0.155279E+02 -0.822662E+01  0.286526E+02
   Ionic forces                  :  0.000000E+00  0.000000E+00  0.000000E+00
   Multipole                     :  0.402954E-01 -0.129942E-01 -0.567582E-01
   Hartree pot. SCF incomplete   : -0.108424E-03  0.580608E-04 -0.274224E-03
   Pulay + GGA                   : -0.155474E+02  0.823609E+01 -0.285943E+02
   Van der Waals                 : -0.172181E-01  0.726474E-02 -0.345653E-02
   ----------------------------------------------------------------
   Total forces(   1)            :  0.350817E-02  0.379064E-02 -0.219506E-02
  atom #    2
   Hellmann-Feynman              :  0.236450E+02  0.824562E+01 -0.223134E+02
   Ionic forces                  :  0.000000E+00  0.000000E+00  0.000000E+00
   Multipole                     :  0.200067E-01  0.126564E-01  0.664307E-01
   Hartree pot. SCF incomplete   : -0.187748E-03 -0.577502E-04  0.216939E-03
   Pulay + GGA                   : -0.236682E+02 -0.824677E+01  0.222594E+02
   Van der Waals                 : -0.174342E-01 -0.725571E-02 -0.207025E-02
   ----------------------------------------------------------------
   Total forces(   2)            : -0.207716E-01  0.418522E-02  0.105124E-01
  atom #    3
   Hellmann-Feynman              :  0.408382E+01  0.198252E+02  0.267944E+02
   Ionic forces                  :  0.000000E+00  0.000000E+00  0.000000E+00
   Multipole                     :  0.224395E-01  0.307799E-01 -0.594845E-01
   Hartree pot. SCF incomplete   : -0.176070E-04 -0.150256E-03 -0.265906E-03
   Pulay + GGA                   : -0.408801E+01 -0.198466E+02 -0.267417E+02
   Van der Waals                 : -0.707395E-02 -0.175297E-01 -0.183251E-02
   ----------------------------------------------------------------
   Total forces(   3)            :  0.111602E-01 -0.829712E-02 -0.887647E-02
  atom #    4
   Hellmann-Feynman              : -0.407983E+01  0.198722E+02 -0.267877E+02
   Ionic forces                  :  0.000000E+00  0.000000E+00  0.000000E+00
   Multipole                     : -0.223299E-01  0.306025E-01  0.598195E-01
   Hartree pot. SCF incomplete   :  0.198594E-04 -0.150169E-03  0.247950E-03
   Pulay + GGA                   :  0.410048E+01 -0.198860E+02  0.267276E+02
   Van der Waals                 :  0.709807E-02 -0.175544E-01  0.184185E-02
   ----------------------------------------------------------------
   Total forces(   4)            :  0.543136E-02 -0.949507E-03  0.177249E-02
  atom #    5
   Hellmann-Feynman              : -0.155553E+02 -0.822249E+01 -0.286285E+02
   Ionic forces                  :  0.000000E+00  0.000000E+00  0.000000E+00
   Multipole                     : -0.401201E-01 -0.128184E-01  0.569729E-01
   Hartree pot. SCF incomplete   :  0.108533E-03  0.603212E-04  0.267973E-03
   Pulay + GGA                   :  0.155775E+02  0.822776E+01  0.285674E+02
   Van der Waals                 :  0.172067E-01  0.726529E-02  0.345488E-02
   ----------------------------------------------------------------
   Total forces(   5)            : -0.619993E-03 -0.221622E-03 -0.473673E-03
  atom #    6
   Hellmann-Feynman              : -0.121830E+02 -0.198602E+02  0.242009E+02
   Ionic forces                  :  0.000000E+00  0.000000E+00  0.000000E+00
   Multipole                     : -0.275154E-02 -0.307154E-01 -0.637314E-01
   Hartree pot. SCF incomplete   :  0.100965E-03  0.147182E-03 -0.241920E-03
   Pulay + GGA                   :  0.121784E+02  0.198746E+02 -0.241371E+02
   Van der Waals                 :  0.728024E-02  0.175297E-01  0.446660E-03
   ----------------------------------------------------------------
   Total forces(   6)            :  0.108851E-03  0.141711E-02  0.266650E-03
  atom #    7
   Hellmann-Feynman              :  0.121888E+02 -0.198688E+02 -0.241951E+02
   Ionic forces                  :  0.000000E+00  0.000000E+00  0.000000E+00
   Multipole                     :  0.272248E-02 -0.306452E-01  0.638369E-01
   Hartree pot. SCF incomplete   : -0.100819E-03  0.147439E-03  0.235177E-03
   Pulay + GGA                   : -0.121834E+02  0.198827E+02  0.241304E+02
   Van der Waals                 : -0.727893E-02  0.175487E-01 -0.444017E-03
   ----------------------------------------------------------------
   Total forces(   7)            :  0.818780E-03  0.876490E-03 -0.107576E-02
  atom #    8
   Hellmann-Feynman              : -0.236602E+02  0.822199E+01  0.223810E+02
   Ionic forces                  :  0.000000E+00  0.000000E+00  0.000000E+00
   Multipole                     : -0.205646E-01  0.127428E-01 -0.665016E-01
   Hartree pot. SCF incomplete   :  0.186537E-03 -0.593422E-04 -0.230313E-03
   Pulay + GGA                   :  0.236635E+02 -0.822829E+01 -0.223163E+02
   Van der Waals                 :  0.174202E-01 -0.726854E-02  0.205991E-02
   ----------------------------------------------------------------
   Total forces(   8)            :  0.360969E-03 -0.887079E-03  0.813295E-04

  Timings for VdW correction (Tkatchenko-Scheffler 2009 or later):
  | CPU time:        0.131 s, Wall clock time:        0.131 s.
  Removing unitary transformations (pure translations, rotations) from forces on atoms.
  Atomic forces before filtering:
  | Net force on center of mass :  -0.324427E-05 -0.858726E-04  0.119308E-04 eV/A
  | Net torque on center of mass:   0.576067E-05 -0.192180E-03  0.157389E-04 eV
  Atomic forces after filtering:
  | Net force on center of mass :   0.191647E-17  0.348449E-18 -0.370228E-18 eV/A
  | Net torque on center of mass:   0.115245E-18  0.792884E-17 -0.378003E-17 eV

  Energy and forces in a compact form:
  | Total energy uncorrected      :         -0.870316297182574E+05 eV
  | Total energy corrected        :         -0.870316297182574E+05 eV  <-- do not rely on this value for anything but (periodic) metals
  | Electronic free energy        :         -0.870316297182574E+05 eV
  Total atomic forces (unitary forces cleaned) [eV/Ang]:
  |    1          0.351469208284707E-02          0.380083112816290E-02         -0.221266290377847E-02
  |    2         -0.207718821411776E-01          0.419508188185285E-02          0.104931014076792E-01
  |    3          0.111662807981873E-01         -0.828652120984681E-02         -0.888499826742848E-02
  |    4          0.542770692700445E-02         -0.938640421787109E-03          0.177682748971389E-02
  |    5         -0.626379347814984E-03         -0.210339839631919E-03         -0.458546079975740E-03
  |    6          0.111076391310027E-03          0.142829405162774E-02          0.273393573310455E-03
  |    7          0.815736898514562E-03          0.886769338176390E-03         -0.108426356685082E-02
  |    8          0.362768391129119E-03         -0.875474928554037E-03          0.971483473299456E-04

  ------------------------------------ 
  Start decomposition of the XC Energy 
  ------------------------------------ 
  X and C from original XC functional choice 
  Hartree-Fock Energy :          0.000000000 Ha              0.000000000 eV
  X Energy            :       -200.054620437 Ha          -5443.763197714 eV
  C Energy            :         -5.003268878 Ha           -136.145873192 eV
  Total XC Energy     :       -205.057889315 Ha          -5579.909070905 eV
  ------------------------------------ 
  LDA X and C from self-consistent density 
  X Energy LDA        :       -185.465946517 Ha          -5046.785182334 eV
  C Energy LDA        :         -9.954507602 Ha           -270.875933856 eV
  ------------------------------------ 
  End decomposition of the XC Energy 
  ------------------------------------ 

------------------------------------------------------------

------------------------------------------------------------------------------
  Final output of selected total energy values:

  The following output summarizes some interesting total energy values
  at the end of a run (AFTER all relaxation, molecular dynamics, etc.).

  | Total energy of the DFT / Hartree-Fock s.c.f. calculation      :         -87031.629718257 eV
  | Final zero-broadening corrected energy (caution - metals only) :         -87031.629718257 eV
  | For reference only, the value of 1 Hartree used in FHI-aims is :             27.211384500 eV

  Before relying on these values, please be sure to understand exactly which
  total energy value is referred to by a given number. Different objects may
  all carry the same name 'total energy'. Definitions:

  Total energy of the DFT / Hartree-Fock s.c.f. calculation:
  | Note that this energy does not include ANY quantities calculated after the
  | s.c.f. cycle, in particular not ANY RPA, MP2, etc. many-body perturbation terms.

  Final zero-broadening corrected energy:
  | For metallic systems only, a broadening of the occupation numbers at the Fermi
  | level can be extrapolated back to zero broadening by an electron-gas inspired
  | formula. For all systems that are not real metals, this value can be
  | meaningless and should be avoided.

------------------------------------------------------------------------------
  Methods described in the following list of references were used in this FHI-aims run.
  If you publish the results, please make sure to cite these reference if they apply.
  FHI-aims is an academic code, and for our developers (often, Ph.D. students
  and postdocs), scientific credit in the community is essential.
  Thank you for helping us!

  For any use of FHI-aims, please cite:

    Volker Blum, Ralf Gehrke, Felix Hanke, Paula Havu, Ville Havu,
    Xinguo Ren, Karsten Reuter, and Matthias Scheffler
    'Ab initio molecular simulations with numeric atom-centered orbitals'
    Computer Physics Communications 180, 2175-2196 (2009)
    http://dx.doi.org/10.1016/j.cpc.2009.06.022


  The ELSI infrastructure was used in your run to solve the Kohn-Sham electronic structure.
  Please check out http://elsi-interchange.org to learn more.
  If scalability is important for your project, please acknowledge ELSI by citing:

    V. W-z. Yu, F. Corsetti, A. Garcia, W. P. Huhn, M. Jacquelin, W. Jia,
    B. Lange, L. Lin, J. Lu, W. Mi, A. Seifitokaldani, A. Vazquez-Mayagoitia,
    C. Yang, H. Yang, and V. Blum
    'ELSI: A unified software interface for Kohn-Sham electronic structure solvers'
    Computer Physics Communications 222, 267-285 (2018).
    http://dx.doi.org/10.1016/j.cpc.2017.09.007


  For the real-space grid partitioning and parallelization used in this calculation, please cite:

    Ville Havu, Volker Blum, Paula Havu, and Matthias Scheffler,
    'Efficient O(N) integration for all-electron electronic structure calculation'
    'using numerically tabulated basis functions'
    Journal of Computational Physics 228, 8367-8379 (2009).
    http://dx.doi.org/10.1016/j.jcp.2009.08.008

  Of course, there are many other important community references, e.g., those cited in the
  above references. Our list is limited to references that describe implementations in the
  FHI-aims code. The reason is purely practical (length of this list) - please credit others as well.

------------------------------------------------------------
          Leaving FHI-aims.
          Date     :  20210927, Time     :  124944.464

          Computational steps:
          | Number of self-consistency cycles          :           12
          | Number of SCF (re)initializations          :            1

          Detailed time accounting                     :  max(cpu_time)    wall_clock(cpu1)
          | Total time                                 :        2.989 s           2.997 s
          | Preparation time                           :        0.444 s           0.445 s
          | Boundary condition initalization           :        0.000 s           0.000 s
          | Grid partitioning                          :        0.086 s           0.086 s
          | Preloading free-atom quantities on grid    :        0.019 s           0.020 s
          | Free-atom superposition energy             :        0.005 s           0.005 s
          | Total time for integrations                :        0.837 s           0.837 s
          | Total time for solution of K.-S. equations :        0.154 s           0.155 s
          | Total time for density & force components  :        0.808 s           0.809 s
          | Total time for mixing                      :        0.023 s           0.022 s
          | Total time for Hartree multipole update    :        0.031 s           0.029 s
          | Total time for Hartree multipole sum       :        0.312 s           0.314 s
          | Total time for total energy evaluation     :        0.004 s           0.002 s
          | Total time NSC force correction            :        0.048 s           0.048 s
          | Total time for scaled ZORA corrections     :        0.000 s           0.000 s
          | Total time for vdW correction              :        0.131 s           0.131 s

          Partial memory accounting:
          | Residual value for overall tracked memory usage across tasks:     0.000000 MB (should be 0.000000 MB)
          | Peak values for overall tracked memory usage:
          |   Minimum:        5.560 MB (on task 29 after allocating hessian_basis_wave)
          |   Maximum:        5.772 MB (on task  5 after allocating hessian_basis_wave)
          |   Average:        5.681 MB
          | Largest tracked array allocation:
          |   Minimum:        2.664 MB (hessian_basis_wave on task  1)
          |   Maximum:        2.783 MB (hessian_basis_wave on task  5)
          |   Average:        2.737 MB
          Note:  These values currently only include a subset of arrays which are explicitly tracked.
          The "true" memory usage will be greater.

          Have a nice day.
------------------------------------------------------------
