
     Program PWSCF v.6.4.1 starts on  9Jun2021 at 22:39:45 

     This program is part of the open-source Quantum ESPRESSO suite
     for quantum simulation of materials; please cite
         "P. Giannozzi et al., J. Phys.:Condens. Matter 21 395502 (2009);
         "P. Giannozzi et al., J. Phys.:Condens. Matter 29 465901 (2017);
          URL http://www.quantum-espresso.org", 
     in publications or presentations arising from this work. More details at
     http://www.quantum-espresso.org/quote

     Parallel version (MPI & OpenMP), running on     160 processor cores
     Number of MPI processes:               160
     Threads/MPI process:                     1

     MPI processes distributed on     5 nodes
     R & G space division:  proc/nbgrp/npool/nimage =     160
     Waiting for input...
     Reading input from standard input

     Current dimensions of program PWSCF are:
     Max number of different atomic species (ntypx) = 10
     Max number of k-points (npk) =  40000
     Max angular momentum in pseudopotentials (lmaxx) =  3

     Atomic positions and unit cell read from directory:
     ./unfold.save/
 

     Subspace diagonalization in iterative solution of the eigenvalue problem:
     one sub-group per band group will be used
     scalapack distributed-memory algorithm (size of sub-group:  8*  8 procs)

 
     Parallelization info
     --------------------
     sticks:   dense  smooth     PW     G-vecs:    dense   smooth      PW
     Min          46      46     12                 4094     4094     550
     Max          47      47     14                 4105     4105     559
     Sum        7471    7471   1957               656009   656009   88399
 


     bravais-lattice index     =            0
     lattice parameter (alat)  =      30.0466  a.u.
     unit-cell volume          =   29549.5915 (a.u.)^3
     number of atoms/cell      =           74
     number of atomic types    =            2
     number of electrons       =       636.00
     number of Kohn-Sham states=         1000
     kinetic-energy cutoff     =      30.0000  Ry
     charge density cutoff     =     120.0000  Ry
     Exchange-correlation      = PBE ( 1  4  3  4 0 0)
     Non magnetic calculation with spin-orbit


     celldm(1)=  30.046646  celldm(2)=   0.000000  celldm(3)=   0.000000
     celldm(4)=   0.000000  celldm(5)=   0.000000  celldm(6)=   0.000000

     crystal axes: (cart. coord. in units of alat)
               a(1) = (   1.000000   0.000000   0.000000 )  
               a(2) = (  -0.500000   0.866025   0.000000 )  
               a(3) = (   0.000000   0.000000   1.257862 )  

     reciprocal axes: (cart. coord. in units 2 pi/alat)
               b(1) = (  1.000000  0.577350  0.000000 )  
               b(2) = (  0.000000  1.154701  0.000000 )  
               b(3) = (  0.000000  0.000000  0.795000 )  


     PseudoPot. # 1 for S  read from file:
     /ptmp/alaa/qe/2/pseudo/S_ONCV_PBE_FR-1.1.upf
     MD5 check sum: 520a35214b8921ef5a3e305e16abb38a
     Pseudo is Norm-conserving, Zval =  6.0
     Generated using ONCVPSP code by D. R. Hamann
     Using radial grid of  602 points,  6 beta functions with: 
                l(1) =   0
                l(2) =   0
                l(3) =   1
                l(4) =   1
                l(5) =   1
                l(6) =   1

     PseudoPot. # 2 for Mo read from file:
     /ptmp/alaa/qe/2/pseudo/Mo_ONCV_PBE_FR-1.0.upf
     MD5 check sum: 05288ac22f87858946b79311c37e479e
     Pseudo is Norm-conserving, Zval = 14.0
     Generated using ONCVPSP code by D. R. Hamann
     Using radial grid of  602 points, 10 beta functions with: 
                l(1) =   0
                l(2) =   0
                l(3) =   1
                l(4) =   1
                l(5) =   1
                l(6) =   1
                l(7) =   2
                l(8) =   2
                l(9) =   2
               l(10) =   2

     atomic species   valence    mass     pseudopotential
        S              6.00    16.00000     S ( 1.00)
        Mo            14.00    42.00000     Mo( 1.00)

     No symmetry found



   Cartesian axes

     site n.     atom                  positions (alat units)
         1           Mo  tau(   1) = (   0.0994216   0.0570139   0.1932390  )
         2           S   tau(   2) = (  -0.0000466   0.1157875   0.2914067  )
         3           S   tau(   3) = (  -0.0000466   0.1157875   0.0950713  )
         4           Mo  tau(   4) = (   0.0007795   0.2314231   0.1932390  )
         5           S   tau(   5) = (  -0.0997734   0.2885196   0.2914068  )
         6           S   tau(   6) = (  -0.0997734   0.2885196   0.0950712  )
         7           Mo  tau(   7) = (  -0.1009345   0.4040442   0.1932390  )
         8           S   tau(   8) = (  -0.1999989   0.4621387   0.2916597  )
         9           S   tau(   9) = (  -0.1999989   0.4621387   0.0948183  )
        10           Mo  tau(  10) = (  -0.1999983   0.5775899   0.1932390  )
        11           S   tau(  11) = (  -0.2995389   0.6353687   0.2916792  )
        12           S   tau(  12) = (  -0.2995389   0.6353687   0.0947988  )
        13           Mo  tau(  13) = (  -0.2998071   0.7504670   0.1932390  )
        14           S   tau(  14) = (  -0.3997927   0.8081938   0.2916605  )
        15           S   tau(  15) = (  -0.3997927   0.8081938   0.0948175  )
        16           Mo  tau(  16) = (   0.3000054   0.0564610   0.1932390  )
        17           S   tau(  17) = (   0.1996368   0.1139586   0.2910251  )
        18           S   tau(  18) = (   0.1996368   0.1139586   0.0954529  )
        19           Mo  tau(  19) = (   0.2023588   0.2301473   0.1932390  )
        20           S   tau(  20) = (   0.1016275   0.2896440   0.2908865  )
        21           S   tau(  21) = (   0.1016275   0.2896440   0.0955915  )
        22           Mo  tau(  22) = (   0.1004721   0.4066269   0.1932390  )
        23           S   tau(  23) = (  -0.0015090   0.4623545   0.2910236  )
        24           S   tau(  24) = (  -0.0015090   0.4623545   0.0954544  )
        25           Mo  tau(  25) = (  -0.0011210   0.5780228   0.1932390  )
        26           S   tau(  26) = (  -0.1004550   0.6353715   0.2916785  )
        27           S   tau(  27) = (  -0.1004550   0.6353715   0.0947995  )
        28           Mo  tau(  28) = (  -0.1001865   0.7504690   0.1932390  )
        29           S   tau(  29) = (  -0.1999948   0.8077828   0.2916797  )
        30           S   tau(  30) = (  -0.1999948   0.8077828   0.0947983  )
        31           Mo  tau(  31) = (   0.5005806   0.0570135   0.1932390  )
        32           S   tau(  32) = (   0.4003742   0.1139620   0.2910234  )
        33           S   tau(  33) = (   0.4003742   0.1139620   0.0954545  )
        34           Mo  tau(  34) = (   0.3976502   0.2301506   0.1932390  )
        35           S   tau(  35) = (   0.3000087   0.2840909   0.2920303  )
        36           S   tau(  36) = (   0.3000087   0.2840909   0.0944477  )
        37           S   tau(  37) = (   0.1960073   0.4642128   0.2920303  )
        38           S   tau(  38) = (   0.1960073   0.4642128   0.0944477  )
        39           Mo  tau(  39) = (   0.1981079   0.5757439   0.1932390  )
        40           S   tau(  40) = (   0.0988549   0.6361938   0.2910249  )
        41           S   tau(  41) = (   0.0988549   0.6361938   0.0954531  )
        42           Mo  tau(  42) = (   0.0996411   0.7514515   0.1932390  )
        43           S   tau(  43) = (  -0.0002025   0.8081951   0.2916601  )
        44           S   tau(  44) = (  -0.0002025   0.8081951   0.0948179  )
        45           Mo  tau(  45) = (   0.7001588   0.0578564   0.1932390  )
        46           S   tau(  46) = (   0.6000437   0.1157863   0.2914066  )
        47           S   tau(  47) = (   0.6000437   0.1157863   0.0950714  )
        48           Mo  tau(  48) = (   0.5992125   0.2314191   0.1932390  )
        49           S   tau(  49) = (   0.4983725   0.2896376   0.2908875  )
        50           S   tau(  50) = (   0.4983725   0.2896376   0.0955905  )
        51           Mo  tau(  51) = (   0.4995236   0.4066111   0.1932390  )
        52           S   tau(  52) = (   0.4039913   0.4642019   0.2920315  )
        53           S   tau(  53) = (   0.4039913   0.4642019   0.0944465  )
        54           Mo  tau(  54) = (   0.4018835   0.5757417   0.1932390  )
        55           S   tau(  55) = (   0.2999945   0.6332315   0.2908879  )
        56           S   tau(  56) = (   0.2999945   0.6332315   0.0955901  )
        57           Mo  tau(  57) = (   0.2999924   0.7496751   0.1932390  )
        58           S   tau(  58) = (   0.2002691   0.8082090   0.2914067  )
        59           S   tau(  59) = (   0.2002691   0.8082090   0.0950713  )
        60           Mo  tau(  60) = (   0.8998302   0.0578575   0.1932390  )
        61           S   tau(  61) = (   0.7999957   0.1154975   0.2915048  )
        62           S   tau(  62) = (   0.7999957   0.1154975   0.0949732  )
        63           Mo  tau(  63) = (   0.7999955   0.2307790   0.1932390  )
        64           S   tau(  64) = (   0.6997688   0.2885159   0.2914066  )
        65           S   tau(  65) = (   0.6997688   0.2885159   0.0950714  )
        66           Mo  tau(  66) = (   0.7009337   0.4040391   0.1932390  )
        67           S   tau(  67) = (   0.6015095   0.4623452   0.2910229  )
        68           S   tau(  68) = (   0.6015095   0.4623452   0.0954551  )
        69           Mo  tau(  69) = (   0.6011227   0.5780178   0.1932390  )
        70           S   tau(  70) = (   0.5011457   0.6361910   0.2910260  )
        71           S   tau(  71) = (   0.5011457   0.6361910   0.0954520  )
        72           Mo  tau(  72) = (   0.5003552   0.7514512   0.1932390  )
        73           S   tau(  73) = (   0.3997228   0.8082087   0.2914066  )
        74           S   tau(  74) = (   0.3997228   0.8082087   0.0950714  )

     number of k points=    56
                       cart. coord. in units 2pi/alat
        k(    1) = (   0.0000000   0.0000000   0.0000000), wk =   0.0178571
        k(    2) = (   0.0454550   0.0262435   0.0000000), wk =   0.0178571
        k(    3) = (   0.0909090   0.0524863   0.0000000), wk =   0.0178571
        k(    4) = (   0.1363640   0.0787298   0.0000000), wk =   0.0178571
        k(    5) = (   0.1818180   0.1049727   0.0000000), wk =   0.0178571
        k(    6) = (   0.2272730   0.1312161   0.0000000), wk =   0.0178571
        k(    7) = (   0.2727270   0.1574590   0.0000000), wk =   0.0178571
        k(    8) = (   0.3181820   0.1837025   0.0000000), wk =   0.0178571
        k(    9) = (   0.3636360   0.2099453   0.0000000), wk =   0.0178571
        k(   10) = (   0.4090910   0.2361888   0.0000000), wk =   0.0178571
        k(   11) = (   0.4545450   0.2624317   0.0000000), wk =   0.0178571
        k(   12) = (   0.5000000   0.2886751   0.0000000), wk =   0.0178571
        k(   13) = (   0.4722220   0.3367880   0.0000000), wk =   0.0178571
        k(   14) = (   0.4444440   0.3848998   0.0000000), wk =   0.0178571
        k(   15) = (   0.4166670   0.4330133   0.0000000), wk =   0.0178571
        k(   16) = (   0.3888890   0.4811250   0.0000000), wk =   0.0178571
        k(   17) = (   0.3611110   0.5292379   0.0000000), wk =   0.0178571
        k(   18) = (   0.3333330  -0.5773508   0.0000000), wk =   0.0178571
        k(   19) = (   0.3076920  -0.5329393   0.0000000), wk =   0.0178571
        k(   20) = (   0.2820510  -0.4885278   0.0000000), wk =   0.0178571
        k(   21) = (   0.2564100  -0.4441163   0.0000000), wk =   0.0178571
        k(   22) = (   0.2307690  -0.3997036   0.0000000), wk =   0.0178571
        k(   23) = (   0.2051280  -0.3552921   0.0000000), wk =   0.0178571
        k(   24) = (   0.1794870  -0.3108806   0.0000000), wk =   0.0178571
        k(   25) = (   0.1538460  -0.2664691   0.0000000), wk =   0.0178571
        k(   26) = (   0.1282050  -0.2220576   0.0000000), wk =   0.0178571
        k(   27) = (   0.1025640  -0.1776461   0.0000000), wk =   0.0178571
        k(   28) = (   0.0769230  -0.1332345   0.0000000), wk =   0.0178571
        k(   29) = (   0.0512820  -0.0888230   0.0000000), wk =   0.0178571
        k(   30) = (   0.0256410  -0.0444115   0.0000000), wk =   0.0178571
        k(   31) = (  -0.3333330   0.5773508   0.0000000), wk =   0.0178571
        k(   32) = (  -0.3589740   0.5329393   0.0000000), wk =   0.0178571
        k(   33) = (  -0.3846150   0.4885278   0.0000000), wk =   0.0178571
        k(   34) = (  -0.4102560   0.4441163   0.0000000), wk =   0.0178571
        k(   35) = (  -0.4358970   0.3997048   0.0000000), wk =   0.0178571
        k(   36) = (  -0.4615380   0.3552933   0.0000000), wk =   0.0178571
        k(   37) = (  -0.4871790   0.3108818   0.0000000), wk =   0.0178571
        k(   38) = (  -0.5128210   0.2664685   0.0000000), wk =   0.0178571
        k(   39) = (  -0.5384620   0.2220570   0.0000000), wk =   0.0178571
        k(   40) = (  -0.5641030   0.1776455   0.0000000), wk =   0.0178571
        k(   41) = (  -0.5897440   0.1332340   0.0000000), wk =   0.0178571
        k(   42) = (  -0.6153850   0.0888225   0.0000000), wk =   0.0178571
        k(   43) = (  -0.6410260   0.0444109   0.0000000), wk =   0.0178571
        k(   44) = (   0.3333330   0.5773497   0.0000000), wk =   0.0178571
        k(   45) = (   0.3076920   0.5329382   0.0000000), wk =   0.0178571
        k(   46) = (   0.2820510   0.4885267   0.0000000), wk =   0.0178571
        k(   47) = (   0.2564100   0.4441151   0.0000000), wk =   0.0178571
        k(   48) = (   0.2307690   0.3997036   0.0000000), wk =   0.0178571
        k(   49) = (   0.2051280   0.3552921   0.0000000), wk =   0.0178571
        k(   50) = (   0.1794870   0.3108806   0.0000000), wk =   0.0178571
        k(   51) = (   0.1538460   0.2664691   0.0000000), wk =   0.0178571
        k(   52) = (   0.1282050   0.2220576   0.0000000), wk =   0.0178571
        k(   53) = (   0.1025640   0.1776461   0.0000000), wk =   0.0178571
        k(   54) = (   0.0769230   0.1332345   0.0000000), wk =   0.0178571
        k(   55) = (   0.0512820   0.0888230   0.0000000), wk =   0.0178571
        k(   56) = (   0.0256410   0.0444115   0.0000000), wk =   0.0178571

     Dense  grid:   656009 G-vectors     FFT dimensions: ( 108, 108, 135)

     Estimated max dynamical RAM per process >       1.08 GB

     Estimated total dynamical RAM >     173.48 GB

     The potential is recalculated from file :
     ./unfold.save/charge-density

     Starting wfcs are random

     Band Structure Calculation
     Davidson diagonalization with overlap

     ethr =  1.57E-10,  avg # of iterations = 42.3

     total cpu time spent up to now is    14732.9 secs

     End of band structure calculation

          k = 0.0000 0.0000 0.0000 ( 81851 PWs)   bands (ev):

   -62.1144 -62.1144 -62.1097 -62.1097 -62.1092 -62.1092 -62.0985 -62.0985
   -62.0981 -62.0981 -62.0932 -62.0932 -61.9926 -61.9926 -61.9890 -61.9890
   -61.9878 -61.9878 -61.9813 -61.9813 -61.9700 -61.9700 -61.9694 -61.9694
   -61.9623 -61.9623 -61.9599 -61.9599 -61.9585 -61.9585 -61.9579 -61.9579
   -61.9528 -61.9528 -61.9526 -61.9526 -61.9384 -61.9384 -61.9373 -61.9373
   -61.9369 -61.9369 -61.9318 -61.9318 -61.9305 -61.9305 -61.9302 -61.9302
   -37.9673 -37.9673 -37.9548 -37.9548 -37.9544 -37.9544 -37.9302 -37.9302
   -37.9287 -37.9287 -37.9175 -37.9175 -37.8483 -37.8483 -37.8433 -37.8433
   -37.8419 -37.8419 -37.8333 -37.8333 -37.8257 -37.8257 -37.8213 -37.8213
   -37.8168 -37.8168 -37.8156 -37.8156 -37.8119 -37.8119 -37.8095 -37.8095
   -37.8022 -37.8022 -37.7919 -37.7919 -37.7755 -37.7755 -37.7740 -37.7740
   -37.7587 -37.7587 -37.7477 -37.7477 -37.7473 -37.7473 -37.7238 -37.7238
   -35.5503 -35.5503 -35.5486 -35.5486 -35.5466 -35.5466 -35.5074 -35.5074
   -35.5052 -35.5052 -35.4911 -35.4911 -35.4655 -35.4655 -35.4638 -35.4638
   -35.4545 -35.4545 -35.4350 -35.4350 -35.4317 -35.4317 -35.4303 -35.4303
   -35.4161 -35.4161 -35.4131 -35.4131 -35.4103 -35.4103 -35.4054 -35.4054
   -35.3954 -35.3954 -35.3863 -35.3863 -35.3836 -35.3836 -35.3716 -35.3716
   -35.3683 -35.3683 -35.3645 -35.3645 -35.3566 -35.3566 -35.3346 -35.3346
   -35.3226 -35.3226 -35.3217 -35.3217 -35.3208 -35.3208 -35.3103 -35.3103
   -35.2981 -35.2981 -35.2950 -35.2950 -35.2941 -35.2941 -35.2912 -35.2912
   -35.2833 -35.2833 -35.2785 -35.2785 -35.2781 -35.2781 -35.2710 -35.2710
   -35.2707 -35.2707 -35.2617 -35.2617 -35.2575 -35.2575 -35.2569 -35.2569
   -35.2551 -35.2551 -35.2532 -35.2532 -35.2374 -35.2374 -35.2337 -35.2337
   -35.2183 -35.2183 -35.2145 -35.2145 -35.2083 -35.2083 -35.1529 -35.1529
   -15.2011 -15.2011 -14.6966 -14.6966 -14.6923 -14.6923 -14.6920 -14.6920
   -14.6545 -14.6545 -14.6536 -14.6536 -14.3818 -14.3818 -13.9042 -13.9042
   -13.8617 -13.8617 -13.8549 -13.8549 -13.8436 -13.8436 -13.7818 -13.7818
   -13.7669 -13.7669 -13.7315 -13.7315 -13.7154 -13.7154 -13.7007 -13.7007
   -13.7004 -13.7004 -13.6630 -13.6630 -13.6627 -13.6627 -13.6072 -13.6072
   -13.6018 -13.6018 -13.6017 -13.6017 -13.5297 -13.5297 -13.4819 -13.4819
   -13.4702 -13.4702 -13.3506 -13.3506 -13.3475 -13.3475 -13.3466 -13.3466
   -13.3310 -13.3310 -13.3300 -13.3300 -13.3211 -13.3211 -13.2996 -13.2996
   -13.2754 -13.2754 -13.2743 -13.2743 -13.2626 -13.2626 -13.2430 -13.2430
   -13.2044 -13.2044 -13.1984 -13.1984 -13.1834 -13.1834 -13.1818 -13.1818
   -13.1194 -13.1194 -13.0949 -13.0949 -13.0925 -13.0925 -13.0770 -13.0770
   -12.9054 -12.9054 -12.7634 -12.7634 -12.7137 -12.7137 -12.6995 -12.6995
   -12.4202 -12.4202 -12.4193 -12.4193  -6.7226  -6.7226  -6.6859  -6.6859
    -6.6707  -6.6707  -6.6698  -6.6698  -6.6175  -6.6175  -6.6157  -6.6157
    -6.6036  -6.6036  -6.3797  -6.3797  -6.3655  -6.3655  -6.3430  -6.3430
    -6.3368  -6.3368  -6.3125  -6.3125  -6.3092  -6.3092  -6.3025  -6.3025
    -6.2873  -6.2873  -6.2788  -6.2788  -6.2425  -6.2425  -6.2394  -6.2394
    -6.2373  -6.2373  -6.2318  -6.2318  -6.2099  -6.2099  -6.2081  -6.2081
    -6.1936  -6.1936  -6.1561  -6.1561  -6.1491  -6.1491  -6.1299  -6.1299
    -6.1286  -6.1286  -5.9271  -5.9271  -5.9235  -5.9235  -5.9111  -5.9111
    -5.7225  -5.7225  -5.6860  -5.6860  -5.6835  -5.6835  -5.6824  -5.6824
    -5.5910  -5.5910  -5.5897  -5.5897  -5.5582  -5.5582  -5.3502  -5.3502
    -5.3192  -5.3192  -5.3085  -5.3085  -5.3026  -5.3026  -5.1279  -5.1279
    -5.1146  -5.1146  -5.1139  -5.1139  -5.1130  -5.1130  -5.0951  -5.0951
    -5.0939  -5.0939  -5.0918  -5.0918  -5.0703  -5.0703  -5.0577  -5.0577
    -5.0428  -5.0428  -5.0334  -5.0334  -4.9178  -4.9178  -4.9103  -4.9103
    -4.8410  -4.8410  -4.8366  -4.8366  -4.8302  -4.8302  -4.8046  -4.8046
    -4.7635  -4.7635  -4.7113  -4.7113  -4.7102  -4.7102  -4.6174  -4.6174
    -4.6068  -4.6068  -4.5572  -4.5572  -4.4733  -4.4733  -4.4638  -4.4638
    -4.4362  -4.4362  -4.4167  -4.4167  -4.4142  -4.4142  -4.4111  -4.4111
    -4.3840  -4.3840  -4.3707  -4.3707  -4.3159  -4.3159  -4.3158  -4.3158
    -4.3156  -4.3156  -4.2620  -4.2620  -4.2565  -4.2565  -4.2534  -4.2534
    -4.2311  -4.2311  -4.2142  -4.2142  -4.2097  -4.2097  -4.2054  -4.2054
    -4.1996  -4.1996  -4.1943  -4.1943  -4.1816  -4.1816  -4.1805  -4.1805
    -4.1051  -4.1051  -4.0651  -4.0651  -3.8522  -3.8522  -3.8154  -3.8154
    -3.7972  -3.7972  -3.7677  -3.7677  -3.7431  -3.7431  -3.7303  -3.7303
    -3.6921  -3.6921  -3.6857  -3.6857  -3.6846  -3.6846  -3.6694  -3.6694
    -3.6417  -3.6417  -3.3840  -3.3840  -3.3827  -3.3827  -3.3589  -3.3589
    -3.3577  -3.3577  -3.3552  -3.3552  -3.3480  -3.3480  -3.3466  -3.3466
    -3.2561  -3.2561  -3.2410  -3.2410  -3.1944  -3.1944  -3.1467  -3.1467
    -3.1339  -3.1339  -3.1185  -3.1185  -3.1129  -3.1129  -3.0700  -3.0700
    -3.0691  -3.0691  -3.0384  -3.0384  -3.0373  -3.0373  -3.0288  -3.0288
    -3.0019  -3.0019  -2.9199  -2.9199  -2.9168  -2.9168  -2.9124  -2.9124
    -2.8968  -2.8968  -2.8938  -2.8938  -2.8423  -2.8423  -2.8022  -2.8022
    -2.7708  -2.7708  -2.7509  -2.7509  -2.7372  -2.7372  -2.6748  -2.6748
    -2.3861  -2.3861  -2.3860  -2.3860  -2.3346  -2.3346  -2.3294  -2.3294
    -2.3157  -2.3157  -2.2955  -2.2955  -2.2751  -2.2751  -2.2746  -2.2746
    -2.2299  -2.2299  -2.2234  -2.2234  -2.2178  -2.2178  -2.2124  -2.2124
    -2.1737  -2.1737  -2.1702  -2.1702  -2.1297  -2.1297  -2.1147  -2.1147
    -2.1005  -2.1005  -1.9778  -1.9778  -1.9672  -1.9672  -1.9568  -1.9568
    -1.9483  -1.9483  -1.9459  -1.9459  -1.8757  -1.8757  -1.8420  -1.8420
    -1.8166  -1.8166  -1.7982  -1.7982  -1.7600  -1.7600  -1.7011  -1.7011
    -1.6633  -1.6633  -1.6263  -1.6263  -1.5702  -1.5702  -1.5694  -1.5694
    -1.5667  -1.5667  -1.5272  -1.5272  -1.4803  -1.4803  -1.4428  -1.4428
    -1.4108  -1.4108  -1.2995  -1.2995  -1.2703  -1.2703  -1.1731  -1.1731
    -0.8191  -0.8191  -0.8177  -0.8177  -0.4979  -0.4979  -0.4596  -0.4596
    -0.1004  -0.1004   0.8479   0.8479   0.8535   0.8535   0.8655   0.8655
     0.8794   0.8794   0.9105   0.9105   0.9137   0.9137   0.9425   0.9425
     0.9445   0.9445   0.9513   0.9513   0.9845   0.9845   0.9869   0.9869
     1.0127   1.0127   1.0432   1.0432   1.0637   1.0637   1.0736   1.0736
     1.0855   1.0855   1.0920   1.0920   1.1233   1.1233   1.1410   1.1410
     1.1487   1.1487   1.1535   1.1535   1.2261   1.2261   1.2336   1.2336
     1.2718   1.2718   1.3793   1.3793   1.3933   1.3933   1.3955   1.3955
     1.4027   1.4027   1.4089   1.4089   1.4167   1.4167   1.4261   1.4261
     1.4322   1.4322   1.4341   1.4341   1.4416   1.4416   1.4523   1.4523
     1.4698   1.4698   1.4840   1.4840   1.5111   1.5111   1.5362   1.5362
     1.5671   1.5671   1.5777   1.5777   1.5895   1.5895   1.6090   1.6090
     1.6160   1.6160   1.6560   1.6560   1.6665   1.6665   1.7306   1.7306
     1.7531   1.7531   1.8188   1.8188   1.8484   1.8484   1.8502   1.8502
     1.8855   1.8855   1.9040   1.9040   1.9506   1.9506   1.9550   1.9550
     1.9913   1.9913   2.0316   2.0316   2.0318   2.0318   2.0467   2.0467
     2.1188   2.1188   2.1427   2.1427   2.2374   2.2374   2.2390   2.2390
     2.2606   2.2606   2.2807   2.2807   2.3527   2.3527   2.3559   2.3559
     2.4010   2.4010   2.4940   2.4940   2.5602   2.5602   2.5624   2.5624
     2.5833   2.5833   2.6121   2.6121   2.6150   2.6150   2.6385   2.6385
     2.6585   2.6585   2.7191   2.7191   2.9131   2.9131   2.9346   2.9346
     3.1250   3.1250   3.1505   3.1505   3.1515   3.1515   3.2107   3.2107
     3.2132   3.2132   3.2283   3.2283   3.3109   3.3109   3.3254   3.3254
     3.3304   3.3304   3.3559   3.3559   3.4134   3.4134   3.4366   3.4366
     3.4539   3.4539   3.5228   3.5228   3.5239   3.5239   3.5437   3.5437
     4.3439   4.3439   4.5792   4.5792   5.1260   5.1260   5.1366   5.1366
     5.1462   5.1462   5.1464   5.1464   5.1723   5.1723   5.1724   5.1724
     5.1952   5.1952   5.3004   5.3004   5.3101   5.3101   5.3101   5.3101
     5.3473   5.3473   5.3474   5.3474   5.4102   5.4102   5.5261   5.5261
     5.6520   5.6520   5.6758   5.6758   5.6775   5.6775   5.6970   5.6970
     5.7133   5.7133   5.7223   5.7223   5.7970   5.7970   5.8243   5.8243
     5.8296   5.8296   5.8926   5.8926   5.8999   5.8999   6.0287   6.0287
     6.0414   6.0414   6.0416   6.0416   6.0428   6.0428   6.0541   6.0541
     6.0543   6.0543   6.0697   6.0697   6.3871   6.3871   6.4647   6.4647
     6.4652   6.4652   6.4731   6.4731   6.4838   6.4838   6.4913   6.4913
     6.4966   6.4966   6.6762   6.6762   6.6764   6.6764   6.6817   6.6817
     6.6914   6.6914   6.6915   6.6915   6.7040   6.7040   6.7929   6.7929
     6.7932   6.7932   6.8154   6.8154   6.8198   6.8198   6.8325   6.8325
     6.8451   6.8451   6.8621   6.8621   6.8706   6.8706   6.8788   6.8788
     6.8801   6.8801   6.8896   6.8896   6.8977   6.8977   7.0865   7.0865
     7.0919   7.0919   7.0919   7.0919   7.1278   7.1278   7.1279   7.1279
     7.1449   7.1449   7.1479   7.1479   7.1626   7.1626   7.1943   7.1943
     7.2046   7.2046   7.2052   7.2052   7.4054   7.4054   7.4065   7.4065
     7.4070   7.4070   7.4257   7.4257   7.4561   7.4561   7.4574   7.4574
     7.4612   7.4612   7.5154   7.5154   7.5422   7.5422   7.5525   7.5525
     7.5554   7.5554   7.5638   7.5638   7.5755   7.5755   7.5789   7.5789

          k = 0.0455 0.0262 0.0000 ( 81889 PWs)   bands (ev):

   -62.1144 -62.1144 -62.1097 -62.1097 -62.1092 -62.1092 -62.0985 -62.0985
   -62.0981 -62.0981 -62.0932 -62.0932 -61.9926 -61.9926 -61.9891 -61.9891
   -61.9878 -61.9878 -61.9813 -61.9813 -61.9700 -61.9700 -61.9694 -61.9694
   -61.9623 -61.9623 -61.9599 -61.9599 -61.9586 -61.9586 -61.9579 -61.9579
   -61.9528 -61.9528 -61.9526 -61.9526 -61.9384 -61.9384 -61.9373 -61.9373
   -61.9369 -61.9369 -61.9318 -61.9318 -61.9305 -61.9305 -61.9302 -61.9302
   -37.9673 -37.9673 -37.9548 -37.9548 -37.9545 -37.9545 -37.9302 -37.9302
   -37.9287 -37.9287 -37.9175 -37.9175 -37.8483 -37.8483 -37.8433 -37.8432
   -37.8419 -37.8418 -37.8333 -37.8333 -37.8257 -37.8257 -37.8214 -37.8214
   -37.8173 -37.8172 -37.8155 -37.8155 -37.8119 -37.8119 -37.8093 -37.8093
   -37.8020 -37.8020 -37.7919 -37.7918 -37.7756 -37.7756 -37.7741 -37.7741
   -37.7591 -37.7591 -37.7477 -37.7476 -37.7470 -37.7469 -37.7239 -37.7239
   -35.5503 -35.5503 -35.5486 -35.5486 -35.5467 -35.5466 -35.5075 -35.5074
   -35.5052 -35.5051 -35.4910 -35.4910 -35.4656 -35.4656 -35.4639 -35.4638
   -35.4546 -35.4546 -35.4352 -35.4351 -35.4316 -35.4316 -35.4301 -35.4301
   -35.4160 -35.4160 -35.4133 -35.4132 -35.4104 -35.4104 -35.4055 -35.4055
   -35.3951 -35.3951 -35.3863 -35.3862 -35.3837 -35.3837 -35.3716 -35.3716
   -35.3685 -35.3685 -35.3645 -35.3645 -35.3563 -35.3562 -35.3350 -35.3350
   -35.3227 -35.3226 -35.3218 -35.3217 -35.3208 -35.3208 -35.3101 -35.3101
   -35.2983 -35.2983 -35.2961 -35.2960 -35.2934 -35.2932 -35.2909 -35.2908
   -35.2834 -35.2833 -35.2788 -35.2787 -35.2777 -35.2776 -35.2711 -35.2711
   -35.2706 -35.2705 -35.2617 -35.2617 -35.2578 -35.2577 -35.2570 -35.2570
   -35.2549 -35.2548 -35.2532 -35.2532 -35.2376 -35.2375 -35.2338 -35.2338
   -35.2195 -35.2195 -35.2136 -35.2135 -35.2077 -35.2077 -35.1530 -35.1530
   -15.2002 -15.2002 -14.7300 -14.7299 -14.7020 -14.7020 -14.6735 -14.6735
   -14.6423 -14.6422 -14.6402 -14.6401 -14.3781 -14.3781 -13.9036 -13.9036
   -13.8924 -13.8924 -13.8603 -13.8602 -13.8245 -13.8244 -13.7856 -13.7855
   -13.7627 -13.7626 -13.7232 -13.7232 -13.7184 -13.7184 -13.7024 -13.7024
   -13.6945 -13.6945 -13.6613 -13.6613 -13.6603 -13.6603 -13.6231 -13.6231
   -13.6033 -13.6032 -13.5887 -13.5887 -13.5287 -13.5287 -13.4796 -13.4795
   -13.4683 -13.4682 -13.3651 -13.3651 -13.3521 -13.3521 -13.3391 -13.3391
   -13.3340 -13.3340 -13.3245 -13.3245 -13.3143 -13.3143 -13.2994 -13.2994
   -13.2782 -13.2782 -13.2748 -13.2747 -13.2593 -13.2593 -13.2435 -13.2435
   -13.2074 -13.2074 -13.1970 -13.1970 -13.1835 -13.1835 -13.1819 -13.1819
   -13.1203 -13.1203 -13.0951 -13.0951 -13.0927 -13.0926 -13.0769 -13.0769
   -12.9053 -12.9053 -12.7635 -12.7635 -12.7138 -12.7138 -12.6996 -12.6996
   -12.4202 -12.4202 -12.4193 -12.4193  -6.7241  -6.7241  -6.6930  -6.6930
    -6.6753  -6.6752  -6.6742  -6.6741  -6.6116  -6.6115  -6.6106  -6.6105
    -6.5917  -6.5917  -6.3956  -6.3956  -6.3670  -6.3669  -6.3470  -6.3470
    -6.3437  -6.3436  -6.3248  -6.3247  -6.3011  -6.3009  -6.2918  -6.2917
    -6.2807  -6.2806  -6.2698  -6.2698  -6.2574  -6.2573  -6.2426  -6.2426
    -6.2388  -6.2388  -6.2211  -6.2211  -6.2061  -6.2059  -6.2034  -6.2032
    -6.1939  -6.1939  -6.1527  -6.1527  -6.1457  -6.1457  -6.1295  -6.1295
    -6.1269  -6.1269  -5.9276  -5.9274  -5.9231  -5.9229  -5.9076  -5.9076
    -5.7220  -5.7220  -5.6971  -5.6971  -5.6877  -5.6877  -5.6865  -5.6865
    -5.5889  -5.5889  -5.5827  -5.5827  -5.5514  -5.5514  -5.3784  -5.3784
    -5.3568  -5.3568  -5.3011  -5.3010  -5.2649  -5.2649  -5.1194  -5.1194
    -5.1161  -5.1161  -5.1138  -5.1138  -5.1017  -5.1016  -5.0960  -5.0960
    -5.0918  -5.0918  -5.0865  -5.0865  -5.0711  -5.0711  -5.0574  -5.0574
    -5.0407  -5.0407  -5.0317  -5.0317  -4.9193  -4.9193  -4.9117  -4.9117
    -4.8464  -4.8464  -4.8381  -4.8380  -4.8271  -4.8271  -4.8107  -4.8106
    -4.7714  -4.7714  -4.7137  -4.7137  -4.7011  -4.7010  -4.6156  -4.6156
    -4.6040  -4.6040  -4.5546  -4.5546  -4.4723  -4.4723  -4.4628  -4.4627
    -4.4369  -4.4368  -4.4230  -4.4229  -4.4138  -4.4138  -4.4042  -4.4042
    -4.3843  -4.3843  -4.3701  -4.3701  -4.3588  -4.3588  -4.3244  -4.3244
    -4.2969  -4.2969  -4.2631  -4.2631  -4.2554  -4.2554  -4.2419  -4.2419
    -4.2271  -4.2270  -4.2160  -4.2159  -4.2085  -4.2084  -4.2028  -4.2027
    -4.1993  -4.1992  -4.1925  -4.1925  -4.1748  -4.1748  -4.1717  -4.1716
    -4.1036  -4.1036  -4.0686  -4.0686  -3.8972  -3.8972  -3.8295  -3.8295
    -3.8097  -3.8097  -3.7877  -3.7877  -3.7300  -3.7300  -3.7071  -3.7071
    -3.6926  -3.6926  -3.6847  -3.6847  -3.6732  -3.6732  -3.6495  -3.6495
    -3.6173  -3.6172  -3.4048  -3.4048  -3.3952  -3.3952  -3.3790  -3.3790
    -3.3668  -3.3668  -3.3586  -3.3585  -3.3263  -3.3263  -3.3158  -3.3157
    -3.2633  -3.2633  -3.2457  -3.2457  -3.1935  -3.1934  -3.1475  -3.1475
    -3.1353  -3.1352  -3.1158  -3.1157  -3.0919  -3.0918  -3.0733  -3.0733
    -3.0705  -3.0704  -3.0399  -3.0399  -3.0352  -3.0352  -3.0251  -3.0251
    -2.9974  -2.9974  -2.9277  -2.9277  -2.9202  -2.9202  -2.9143  -2.9143
    -2.8942  -2.8942  -2.8898  -2.8898  -2.8496  -2.8495  -2.8008  -2.8008
    -2.7692  -2.7692  -2.7495  -2.7495  -2.7287  -2.7287  -2.6673  -2.6672
    -2.4000  -2.4000  -2.3905  -2.3905  -2.3437  -2.3437  -2.3286  -2.3286
    -2.3075  -2.3074  -2.2916  -2.2916  -2.2852  -2.2851  -2.2732  -2.2732
    -2.2379  -2.2378  -2.2275  -2.2274  -2.2183  -2.2183  -2.2122  -2.2122
    -2.1703  -2.1703  -2.1663  -2.1663  -2.1394  -2.1394  -2.1125  -2.1124
    -2.1022  -2.1022  -1.9815  -1.9815  -1.9673  -1.9672  -1.9630  -1.9629
    -1.9447  -1.9447  -1.9328  -1.9328  -1.8735  -1.8735  -1.8412  -1.8412
    -1.8132  -1.8132  -1.7939  -1.7938  -1.7605  -1.7605  -1.7017  -1.7017
    -1.6672  -1.6671  -1.6278  -1.6278  -1.5949  -1.5948  -1.5712  -1.5712
    -1.5471  -1.5471  -1.5176  -1.5176  -1.4773  -1.4772  -1.4443  -1.4443
    -1.4107  -1.4107  -1.3033  -1.3032  -1.2688  -1.2688  -1.1733  -1.1733
    -0.8190  -0.8190  -0.8173  -0.8173  -0.4979  -0.4979  -0.4595  -0.4595
    -0.1003  -0.1003   0.8361   0.8362   0.8492   0.8493   0.8743   0.8744
     0.8790   0.8791   0.8997   0.8998   0.9206   0.9207   0.9436   0.9436
     0.9484   0.9484   0.9580   0.9580   0.9790   0.9791   0.9980   0.9980
     1.0149   1.0149   1.0434   1.0434   1.0636   1.0637   1.0730   1.0730
     1.0854   1.0854   1.0906   1.0906   1.1246   1.1246   1.1407   1.1408
     1.1515   1.1516   1.1560   1.1560   1.2260   1.2261   1.2336   1.2336
     1.2713   1.2713   1.3719   1.3719   1.3901   1.3901   1.3933   1.3934
     1.4029   1.4030   1.4064   1.4064   1.4130   1.4130   1.4227   1.4227
     1.4301   1.4303   1.4392   1.4392   1.4507   1.4508   1.4541   1.4541
     1.4741   1.4741   1.4830   1.4832   1.5139   1.5139   1.5379   1.5379
     1.5602   1.5603   1.5673   1.5673   1.5898   1.5898   1.6137   1.6138
     1.6192   1.6192   1.6533   1.6534   1.6757   1.6758   1.7313   1.7314
     1.7544   1.7544   1.8191   1.8191   1.8424   1.8424   1.8489   1.8489
     1.8907   1.8907   1.9004   1.9004   1.9401   1.9402   1.9554   1.9555
     1.9960   1.9960   2.0260   2.0260   2.0327   2.0327   2.0483   2.0483
     2.1082   2.1082   2.1556   2.1557   2.2156   2.2156   2.2479   2.2479
     2.2650   2.2650   2.2879   2.2880   2.3400   2.3401   2.3597   2.3597
     2.4151   2.4151   2.4838   2.4838   2.5600   2.5600   2.5727   2.5727
     2.5745   2.5745   2.6093   2.6093   2.6158   2.6158   2.6451   2.6451
     2.6614   2.6615   2.7221   2.7221   2.9129   2.9129   2.9338   2.9339
     3.1246   3.1246   3.1479   3.1480   3.1516   3.1516   3.2007   3.2007
     3.2159   3.2159   3.2307   3.2307   3.3054   3.3055   3.3190   3.3191
     3.3358   3.3358   3.3567   3.3568   3.4070   3.4070   3.4369   3.4370
     3.4479   3.4479   3.5218   3.5221   3.5275   3.5279   3.5551   3.5552
     4.3463   4.3463   4.5809   4.5809   5.0884   5.0884   5.1266   5.1266
     5.1288   5.1288   5.1420   5.1420   5.1893   5.1893   5.1952   5.1952
     5.2365   5.2365   5.2535   5.2535   5.2924   5.2924   5.3176   5.3176
     5.3641   5.3641   5.3680   5.3680   5.4384   5.4384   5.5292   5.5292
     5.6317   5.6318   5.6646   5.6647   5.6714   5.6714   5.7006   5.7006
     5.7101   5.7101   5.7389   5.7390   5.7660   5.7660   5.8106   5.8106
     5.8355   5.8355   5.9198   5.9199   5.9336   5.9337   5.9810   5.9810
     6.0158   6.0158   6.0208   6.0208   6.0598   6.0598   6.0832   6.0832
     6.0835   6.0835   6.1203   6.1203   6.3887   6.3887   6.3995   6.3995
     6.4162   6.4162   6.4686   6.4686   6.4894   6.4894   6.5353   6.5353
     6.5572   6.5572   6.5987   6.5987   6.6130   6.6130   6.6865   6.6865
     6.6892   6.6892   6.7603   6.7603   6.7631   6.7631   6.7849   6.7849
     6.7939   6.7939   6.7976   6.7977   6.8155   6.8155   6.8203   6.8203
     6.8358   6.8358   6.8716   6.8716   6.8794   6.8794   6.8904   6.8904
     6.8945   6.8945   6.9064   6.9064   6.9204   6.9205   7.0406   7.0406
     7.0760   7.0760   7.0960   7.0961   7.0978   7.0978   7.1248   7.1248
     7.1400   7.1400   7.1466   7.1466   7.1712   7.1712   7.1957   7.1957
     7.2302   7.2302   7.2624   7.2624   7.3654   7.3654   7.3909   7.3909
     7.4042   7.4042   7.4094   7.4094   7.4206   7.4206   7.4396   7.4396
     7.4648   7.4648   7.5031   7.5031   7.5420   7.5420   7.5511   7.5511
     7.5624   7.5624   7.5667   7.5667   7.5727   7.5727   7.5756   7.5757

          k = 0.0909 0.0525 0.0000 ( 81881 PWs)   bands (ev):

   -62.1144 -62.1144 -62.1096 -62.1096 -62.1092 -62.1092 -62.0985 -62.0985
   -62.0981 -62.0981 -62.0932 -62.0932 -61.9926 -61.9926 -61.9890 -61.9890
   -61.9878 -61.9878 -61.9813 -61.9813 -61.9700 -61.9700 -61.9694 -61.9694
   -61.9623 -61.9623 -61.9599 -61.9599 -61.9585 -61.9585 -61.9578 -61.9578
   -61.9528 -61.9528 -61.9526 -61.9526 -61.9384 -61.9384 -61.9373 -61.9373
   -61.9369 -61.9369 -61.9318 -61.9318 -61.9305 -61.9305 -61.9302 -61.9302
   -37.9673 -37.9673 -37.9548 -37.9548 -37.9545 -37.9545 -37.9303 -37.9303
   -37.9287 -37.9287 -37.9175 -37.9175 -37.8483 -37.8483 -37.8433 -37.8432
   -37.8419 -37.8418 -37.8334 -37.8334 -37.8257 -37.8257 -37.8214 -37.8214
   -37.8180 -37.8179 -37.8155 -37.8154 -37.8121 -37.8121 -37.8089 -37.8089
   -37.8013 -37.8013 -37.7916 -37.7916 -37.7758 -37.7758 -37.7742 -37.7742
   -37.7601 -37.7601 -37.7476 -37.7475 -37.7460 -37.7460 -37.7241 -37.7241
   -35.5503 -35.5503 -35.5487 -35.5486 -35.5467 -35.5466 -35.5075 -35.5074
   -35.5052 -35.5051 -35.4909 -35.4909 -35.4658 -35.4657 -35.4638 -35.4637
   -35.4547 -35.4547 -35.4354 -35.4353 -35.4313 -35.4313 -35.4295 -35.4294
   -35.4159 -35.4159 -35.4138 -35.4137 -35.4106 -35.4106 -35.4057 -35.4057
   -35.3944 -35.3943 -35.3862 -35.3862 -35.3840 -35.3839 -35.3717 -35.3717
   -35.3690 -35.3689 -35.3644 -35.3644 -35.3553 -35.3552 -35.3360 -35.3359
   -35.3230 -35.3229 -35.3218 -35.3218 -35.3209 -35.3208 -35.3096 -35.3095
   -35.2992 -35.2991 -35.2969 -35.2969 -35.2928 -35.2926 -35.2899 -35.2899
   -35.2835 -35.2834 -35.2792 -35.2789 -35.2770 -35.2769 -35.2712 -35.2712
   -35.2703 -35.2702 -35.2617 -35.2616 -35.2585 -35.2584 -35.2573 -35.2572
   -35.2543 -35.2542 -35.2530 -35.2529 -35.2380 -35.2380 -35.2341 -35.2341
   -35.2217 -35.2216 -35.2122 -35.2121 -35.2060 -35.2059 -35.1535 -35.1535
   -15.1968 -15.1968 -14.7671 -14.7671 -14.7190 -14.7190 -14.6731 -14.6731
   -14.6196 -14.6195 -14.6059 -14.6058 -14.3673 -14.3673 -13.9333 -13.9332
   -13.9023 -13.9023 -13.8820 -13.8819 -13.8137 -13.8136 -13.7907 -13.7907
   -13.7401 -13.7401 -13.7358 -13.7358 -13.7065 -13.7065 -13.7016 -13.7016
   -13.6878 -13.6878 -13.6558 -13.6558 -13.6540 -13.6540 -13.6360 -13.6360
   -13.6067 -13.6067 -13.5776 -13.5776 -13.5254 -13.5254 -13.4728 -13.4727
   -13.4624 -13.4623 -13.3823 -13.3823 -13.3640 -13.3640 -13.3374 -13.3374
   -13.3356 -13.3356 -13.3104 -13.3104 -13.3072 -13.3072 -13.2984 -13.2984
   -13.2815 -13.2815 -13.2746 -13.2746 -13.2535 -13.2535 -13.2451 -13.2450
   -13.2134 -13.2134 -13.1954 -13.1954 -13.1837 -13.1837 -13.1819 -13.1819
   -13.1225 -13.1225 -13.0969 -13.0969 -13.0918 -13.0917 -13.0766 -13.0766
   -12.9049 -12.9049 -12.7634 -12.7634 -12.7142 -12.7142 -12.7001 -12.7001
   -12.4203 -12.4203 -12.4194 -12.4194  -6.7336  -6.7336  -6.7024  -6.7024
    -6.6845  -6.6844  -6.6814  -6.6814  -6.6004  -6.6003  -6.5973  -6.5972
    -6.5648  -6.5648  -6.4227  -6.4227  -6.3851  -6.3851  -6.3571  -6.3571
    -6.3479  -6.3479  -6.3393  -6.3393  -6.2880  -6.2879  -6.2829  -6.2829
    -6.2764  -6.2762  -6.2704  -6.2703  -6.2536  -6.2536  -6.2500  -6.2500
    -6.2295  -6.2294  -6.2186  -6.2186  -6.2020  -6.2019  -6.1906  -6.1905
    -6.1881  -6.1881  -6.1431  -6.1431  -6.1360  -6.1360  -6.1294  -6.1293
    -6.1206  -6.1206  -5.9271  -5.9269  -5.9210  -5.9208  -5.8997  -5.8996
    -5.7230  -5.7229  -5.7192  -5.7192  -5.6993  -5.6992  -5.6974  -5.6974
    -5.5860  -5.5860  -5.5708  -5.5708  -5.5341  -5.5341  -5.4227  -5.4227
    -5.4025  -5.4025  -5.2919  -5.2919  -5.2368  -5.2368  -5.1237  -5.1236
    -5.1180  -5.1180  -5.0972  -5.0972  -5.0908  -5.0907  -5.0852  -5.0852
    -5.0789  -5.0788  -5.0723  -5.0723  -5.0620  -5.0619  -5.0562  -5.0562
    -5.0349  -5.0348  -5.0269  -5.0269  -4.9237  -4.9237  -4.9157  -4.9157
    -4.8560  -4.8559  -4.8460  -4.8459  -4.8274  -4.8274  -4.8219  -4.8219
    -4.7823  -4.7823  -4.7214  -4.7214  -4.6842  -4.6842  -4.6132  -4.6132
    -4.5957  -4.5956  -4.5465  -4.5465  -4.4747  -4.4745  -4.4624  -4.4623
    -4.4475  -4.4475  -4.4235  -4.4235  -4.4131  -4.4130  -4.4086  -4.4086
    -4.3877  -4.3876  -4.3744  -4.3744  -4.3661  -4.3660  -4.3407  -4.3407
    -4.3193  -4.3192  -4.2582  -4.2581  -4.2481  -4.2480  -4.2319  -4.2318
    -4.2247  -4.2247  -4.2176  -4.2176  -4.2086  -4.2086  -4.2045  -4.2045
    -4.1912  -4.1912  -4.1834  -4.1833  -4.1621  -4.1621  -4.1361  -4.1361
    -4.0995  -4.0994  -4.0798  -4.0798  -3.9701  -3.9701  -3.8907  -3.8906
    -3.8111  -3.8111  -3.7943  -3.7943  -3.7242  -3.7242  -3.7083  -3.7083
    -3.6972  -3.6972  -3.6823  -3.6823  -3.6523  -3.6523  -3.6068  -3.6067
    -3.5373  -3.5372  -3.4421  -3.4421  -3.4350  -3.4350  -3.3865  -3.3865
    -3.3721  -3.3720  -3.3675  -3.3675  -3.3018  -3.3018  -3.2904  -3.2904
    -3.2733  -3.2733  -3.2574  -3.2574  -3.1842  -3.1842  -3.1487  -3.1487
    -3.1353  -3.1353  -3.0912  -3.0912  -3.0822  -3.0821  -3.0798  -3.0798
    -3.0565  -3.0565  -3.0406  -3.0406  -3.0278  -3.0278  -3.0163  -3.0163
    -2.9893  -2.9893  -2.9498  -2.9498  -2.9247  -2.9247  -2.9212  -2.9212
    -2.8958  -2.8958  -2.8777  -2.8777  -2.8505  -2.8505  -2.7950  -2.7950
    -2.7651  -2.7651  -2.7448  -2.7447  -2.7207  -2.7207  -2.6415  -2.6415
    -2.4257  -2.4257  -2.4096  -2.4096  -2.3574  -2.3574  -2.3317  -2.3317
    -2.3133  -2.3132  -2.3020  -2.3020  -2.2853  -2.2853  -2.2657  -2.2657
    -2.2547  -2.2547  -2.2410  -2.2410  -2.2193  -2.2193  -2.2094  -2.2094
    -2.1671  -2.1671  -2.1606  -2.1605  -2.1504  -2.1503  -2.1248  -2.1247
    -2.0955  -2.0955  -1.9904  -1.9904  -1.9726  -1.9725  -1.9585  -1.9585
    -1.9356  -1.9356  -1.9138  -1.9138  -1.8682  -1.8681  -1.8386  -1.8386
    -1.8038  -1.8038  -1.7818  -1.7818  -1.7621  -1.7621  -1.7055  -1.7055
    -1.6791  -1.6790  -1.6311  -1.6310  -1.6135  -1.6135  -1.5760  -1.5760
    -1.5357  -1.5356  -1.4971  -1.4971  -1.4667  -1.4666  -1.4481  -1.4480
    -1.4102  -1.4102  -1.3127  -1.3126  -1.2660  -1.2659  -1.1741  -1.1741
    -0.8186  -0.8186  -0.8163  -0.8163  -0.4975  -0.4975  -0.4590  -0.4590
    -0.1001  -0.1001   0.8164   0.8165   0.8422   0.8423   0.8663   0.8664
     0.8831   0.8831   0.9015   0.9015   0.9215   0.9215   0.9493   0.9494
     0.9565   0.9565   0.9717   0.9718   0.9834   0.9835   1.0096   1.0097
     1.0231   1.0232   1.0442   1.0442   1.0640   1.0640   1.0717   1.0718
     1.0844   1.0844   1.0896   1.0896   1.1252   1.1252   1.1426   1.1427
     1.1551   1.1551   1.1669   1.1670   1.2266   1.2266   1.2333   1.2334
     1.2697   1.2697   1.3559   1.3559   1.3813   1.3813   1.3854   1.3855
     1.3974   1.3974   1.4024   1.4025   1.4114   1.4114   1.4184   1.4185
     1.4262   1.4263   1.4511   1.4511   1.4594   1.4595   1.4639   1.4640
     1.4782   1.4783   1.4892   1.4894   1.5173   1.5173   1.5359   1.5359
     1.5526   1.5526   1.5553   1.5554   1.5818   1.5818   1.6130   1.6131
     1.6329   1.6329   1.6531   1.6531   1.6946   1.6947   1.7340   1.7340
     1.7580   1.7580   1.8153   1.8153   1.8280   1.8280   1.8504   1.8504
     1.8903   1.8903   1.9030   1.9030   1.9228   1.9228   1.9492   1.9492
     1.9909   1.9910   2.0242   2.0243   2.0340   2.0340   2.0534   2.0534
     2.0918   2.0919   2.1728   2.1729   2.1982   2.1982   2.2368   2.2368
     2.2770   2.2770   2.3000   2.3001   2.3208   2.3208   2.3732   2.3733
     2.4274   2.4274   2.4776   2.4776   2.5407   2.5407   2.5696   2.5696
     2.5914   2.5914   2.6044   2.6045   2.6146   2.6146   2.6605   2.6605
     2.6705   2.6706   2.7305   2.7306   2.9118   2.9119   2.9326   2.9326
     3.1231   3.1231   3.1427   3.1428   3.1502   3.1502   3.1880   3.1880
     3.2097   3.2097   3.2355   3.2355   3.2926   3.2927   3.3096   3.3097
     3.3384   3.3384   3.3574   3.3575   3.3972   3.3973   3.4253   3.4253
     3.4445   3.4445   3.5274   3.5275   3.5347   3.5348   3.5787   3.5787
     4.3536   4.3536   4.5857   4.5857   5.0322   5.0322   5.1007   5.1007
     5.1070   5.1070   5.1463   5.1463   5.1977   5.1977   5.2276   5.2276
     5.2305   5.2305   5.2663   5.2663   5.2916   5.2917   5.2977   5.2977
     5.4029   5.4029   5.4063   5.4063   5.4940   5.4940   5.5387   5.5387
     5.5958   5.5959   5.6217   5.6218   5.6473   5.6473   5.6906   5.6907
     5.7152   5.7152   5.7435   5.7436   5.7784   5.7785   5.8069   5.8069
     5.8414   5.8414   5.9191   5.9191   5.9669   5.9669   5.9855   5.9855
     5.9882   5.9882   6.0039   6.0039   6.1135   6.1135   6.1212   6.1212
     6.1235   6.1235   6.1879   6.1879   6.3280   6.3280   6.3433   6.3433
     6.3932   6.3932   6.4681   6.4681   6.4894   6.4894   6.5177   6.5177
     6.5337   6.5337   6.5923   6.5923   6.6168   6.6168   6.6888   6.6888
     6.6917   6.6917   6.7429   6.7429   6.7639   6.7640   6.7905   6.7905
     6.8021   6.8021   6.8097   6.8097   6.8261   6.8261   6.8370   6.8370
     6.8410   6.8410   6.8954   6.8955   6.9001   6.9001   6.9168   6.9169
     6.9277   6.9277   6.9381   6.9381   6.9663   6.9663   6.9883   6.9883
     7.0105   7.0105   7.0524   7.0524   7.0698   7.0698   7.0906   7.0906
     7.1617   7.1617   7.1779   7.1779   7.1789   7.1789   7.2504   7.2504
     7.2713   7.2714   7.2923   7.2924   7.3228   7.3228   7.3324   7.3324
     7.3484   7.3485   7.3686   7.3686   7.3941   7.3941   7.4218   7.4218
     7.4781   7.4781   7.5121   7.5121   7.5339   7.5340   7.5386   7.5386
     7.5617   7.5617   7.5627   7.5628   7.5760   7.5760   7.5842   7.5842

          k = 0.1364 0.0787 0.0000 ( 81913 PWs)   bands (ev):

   -62.1144 -62.1144 -62.1097 -62.1097 -62.1092 -62.1092 -62.0985 -62.0985
   -62.0981 -62.0981 -62.0932 -62.0932 -61.9926 -61.9926 -61.9891 -61.9891
   -61.9878 -61.9878 -61.9813 -61.9813 -61.9700 -61.9700 -61.9694 -61.9694
   -61.9623 -61.9623 -61.9599 -61.9599 -61.9586 -61.9586 -61.9578 -61.9578
   -61.9528 -61.9528 -61.9527 -61.9527 -61.9384 -61.9384 -61.9373 -61.9373
   -61.9369 -61.9369 -61.9317 -61.9317 -61.9305 -61.9305 -61.9303 -61.9303
   -37.9673 -37.9673 -37.9548 -37.9548 -37.9545 -37.9545 -37.9303 -37.9303
   -37.9287 -37.9287 -37.9175 -37.9175 -37.8482 -37.8482 -37.8433 -37.8431
   -37.8419 -37.8417 -37.8335 -37.8335 -37.8257 -37.8257 -37.8215 -37.8215
   -37.8188 -37.8186 -37.8156 -37.8155 -37.8122 -37.8122 -37.8084 -37.8084
   -37.8003 -37.8002 -37.7913 -37.7912 -37.7761 -37.7761 -37.7745 -37.7745
   -37.7615 -37.7615 -37.7475 -37.7475 -37.7447 -37.7447 -37.7244 -37.7243
   -35.5503 -35.5502 -35.5488 -35.5487 -35.5468 -35.5466 -35.5075 -35.5073
   -35.5053 -35.5051 -35.4908 -35.4908 -35.4661 -35.4660 -35.4637 -35.4636
   -35.4550 -35.4550 -35.4356 -35.4355 -35.4311 -35.4310 -35.4286 -35.4284
   -35.4159 -35.4158 -35.4145 -35.4143 -35.4109 -35.4108 -35.4060 -35.4059
   -35.3934 -35.3934 -35.3864 -35.3864 -35.3840 -35.3839 -35.3720 -35.3719
   -35.3695 -35.3695 -35.3641 -35.3641 -35.3539 -35.3537 -35.3373 -35.3373
   -35.3239 -35.3237 -35.3220 -35.3220 -35.3205 -35.3204 -35.3088 -35.3087
   -35.3008 -35.3006 -35.2971 -35.2971 -35.2925 -35.2923 -35.2888 -35.2888
   -35.2835 -35.2835 -35.2794 -35.2792 -35.2761 -35.2761 -35.2713 -35.2713
   -35.2699 -35.2698 -35.2617 -35.2616 -35.2592 -35.2592 -35.2576 -35.2575
   -35.2539 -35.2538 -35.2525 -35.2523 -35.2388 -35.2387 -35.2346 -35.2345
   -35.2238 -35.2238 -35.2113 -35.2112 -35.2033 -35.2033 -35.1544 -35.1544
   -15.1911 -15.1911 -14.8039 -14.8039 -14.7358 -14.7358 -14.6776 -14.6776
   -14.5932 -14.5932 -14.5677 -14.5677 -14.3501 -14.3501 -13.9759 -13.9759
   -13.9133 -13.9133 -13.9002 -13.9002 -13.8112 -13.8112 -13.7919 -13.7919
   -13.7490 -13.7490 -13.7153 -13.7153 -13.7116 -13.7116 -13.7018 -13.7017
   -13.6849 -13.6849 -13.6458 -13.6458 -13.6453 -13.6453 -13.6286 -13.6286
   -13.6094 -13.6093 -13.5701 -13.5701 -13.5203 -13.5203 -13.4630 -13.4629
   -13.4535 -13.4534 -13.3999 -13.3999 -13.3783 -13.3783 -13.3372 -13.3372
   -13.3360 -13.3360 -13.3086 -13.3086 -13.3003 -13.3003 -13.2945 -13.2945
   -13.2768 -13.2768 -13.2733 -13.2733 -13.2492 -13.2492 -13.2462 -13.2462
   -13.2210 -13.2209 -13.1949 -13.1949 -13.1843 -13.1842 -13.1815 -13.1815
   -13.1260 -13.1260 -13.1005 -13.1005 -13.0899 -13.0899 -13.0763 -13.0763
   -12.9043 -12.9043 -12.7633 -12.7632 -12.7148 -12.7148 -12.7008 -12.7008
   -12.4203 -12.4203 -12.4196 -12.4196  -6.7537  -6.7537  -6.7039  -6.7039
    -6.6946  -6.6946  -6.6863  -6.6863  -6.5876  -6.5876  -6.5817  -6.5816
    -6.5328  -6.5328  -6.4496  -6.4496  -6.4088  -6.4088  -6.3712  -6.3711
    -6.3543  -6.3542  -6.3467  -6.3467  -6.3104  -6.3104  -6.2741  -6.2740
    -6.2640  -6.2640  -6.2613  -6.2613  -6.2590  -6.2589  -6.2433  -6.2433
    -6.2223  -6.2223  -6.2156  -6.2156  -6.1963  -6.1963  -6.1781  -6.1781
    -6.1745  -6.1745  -6.1287  -6.1287  -6.1265  -6.1265  -6.1207  -6.1207
    -6.1113  -6.1113  -5.9237  -5.9235  -5.9169  -5.9167  -5.8900  -5.8900
    -5.7508  -5.7508  -5.7192  -5.7192  -5.7155  -5.7154  -5.7126  -5.7126
    -5.5872  -5.5872  -5.5661  -5.5661  -5.5219  -5.5219  -5.4636  -5.4636
    -5.4260  -5.4260  -5.2908  -5.2908  -5.2252  -5.2252  -5.1311  -5.1311
    -5.1212  -5.1212  -5.0973  -5.0973  -5.0776  -5.0776  -5.0757  -5.0757
    -5.0674  -5.0674  -5.0540  -5.0539  -5.0483  -5.0483  -5.0265  -5.0264
    -5.0196  -5.0195  -5.0095  -5.0095  -4.9302  -4.9302  -4.9217  -4.9217
    -4.8675  -4.8674  -4.8644  -4.8643  -4.8404  -4.8404  -4.8204  -4.8204
    -4.7903  -4.7903  -4.7328  -4.7328  -4.6687  -4.6687  -4.6125  -4.6125
    -4.5859  -4.5858  -4.5333  -4.5332  -4.5134  -4.5134  -4.4625  -4.4625
    -4.4466  -4.4466  -4.4302  -4.4301  -4.4142  -4.4142  -4.4091  -4.4091
    -4.3763  -4.3763  -4.3692  -4.3692  -4.3622  -4.3621  -4.3520  -4.3519
    -4.3393  -4.3392  -4.2671  -4.2670  -4.2547  -4.2546  -4.2375  -4.2375
    -4.2235  -4.2235  -4.2149  -4.2148  -4.2044  -4.2044  -4.1936  -4.1936
    -4.1831  -4.1831  -4.1730  -4.1730  -4.1464  -4.1464  -4.1081  -4.1081
    -4.0884  -4.0883  -4.0834  -4.0833  -4.0409  -4.0408  -3.9471  -3.9471
    -3.8093  -3.8093  -3.7954  -3.7954  -3.7277  -3.7276  -3.7132  -3.7131
    -3.7058  -3.7058  -3.6939  -3.6939  -3.6527  -3.6527  -3.5303  -3.5303
    -3.4836  -3.4835  -3.4761  -3.4761  -3.4484  -3.4483  -3.3957  -3.3957
    -3.3906  -3.3906  -3.3779  -3.3779  -3.3037  -3.3037  -3.2783  -3.2783
    -3.2650  -3.2650  -3.2543  -3.2543  -3.1686  -3.1686  -3.1442  -3.1441
    -3.1270  -3.1270  -3.0940  -3.0940  -3.0901  -3.0901  -3.0599  -3.0598
    -3.0398  -3.0398  -3.0231  -3.0230  -3.0158  -3.0158  -3.0046  -3.0046
    -2.9969  -2.9969  -2.9654  -2.9654  -2.9323  -2.9323  -2.9269  -2.9269
    -2.8949  -2.8949  -2.8612  -2.8612  -2.8396  -2.8396  -2.7850  -2.7850
    -2.7595  -2.7594  -2.7366  -2.7365  -2.7214  -2.7214  -2.6049  -2.6049
    -2.4567  -2.4567  -2.4367  -2.4366  -2.3713  -2.3713  -2.3538  -2.3537
    -2.3407  -2.3407  -2.3147  -2.3147  -2.2963  -2.2962  -2.2689  -2.2689
    -2.2637  -2.2637  -2.2412  -2.2411  -2.2188  -2.2188  -2.2018  -2.2018
    -2.1919  -2.1919  -2.1547  -2.1547  -2.1496  -2.1495  -2.1339  -2.1339
    -2.0840  -2.0840  -2.0042  -2.0042  -1.9696  -1.9696  -1.9541  -1.9541
    -1.9231  -1.9231  -1.8965  -1.8965  -1.8611  -1.8610  -1.8340  -1.8340
    -1.7909  -1.7909  -1.7697  -1.7697  -1.7610  -1.7609  -1.7196  -1.7196
    -1.6908  -1.6908  -1.6366  -1.6365  -1.6197  -1.6196  -1.5796  -1.5796
    -1.5287  -1.5286  -1.4825  -1.4825  -1.4591  -1.4591  -1.4401  -1.4401
    -1.4093  -1.4093  -1.3256  -1.3255  -1.2636  -1.2636  -1.1755  -1.1755
    -0.8178  -0.8178  -0.8148  -0.8148  -0.4971  -0.4970  -0.4583  -0.4583
    -0.0998  -0.0998   0.7964   0.7964   0.8286   0.8287   0.8568   0.8569
     0.8828   0.8828   0.9130   0.9130   0.9190   0.9190   0.9588   0.9589
     0.9708   0.9708   0.9805   0.9806   0.9990   0.9991   1.0185   1.0185
     1.0359   1.0360   1.0453   1.0454   1.0648   1.0649   1.0707   1.0707
     1.0830   1.0831   1.0907   1.0907   1.1233   1.1233   1.1471   1.1472
     1.1589   1.1590   1.1836   1.1837   1.2292   1.2292   1.2327   1.2328
     1.2672   1.2672   1.3378   1.3378   1.3662   1.3662   1.3744   1.3744
     1.3922   1.3922   1.4001   1.4002   1.4066   1.4066   1.4174   1.4175
     1.4248   1.4249   1.4562   1.4563   1.4684   1.4684   1.4752   1.4752
     1.4865   1.4867   1.4993   1.4995   1.5120   1.5121   1.5275   1.5275
     1.5397   1.5398   1.5607   1.5607   1.5775   1.5775   1.6111   1.6112
     1.6342   1.6344   1.6619   1.6620   1.7164   1.7164   1.7399   1.7399
     1.7648   1.7648   1.7962   1.7962   1.8184   1.8184   1.8604   1.8605
     1.8750   1.8750   1.9018   1.9019   1.9183   1.9183   1.9376   1.9376
     1.9670   1.9671   2.0302   2.0302   2.0364   2.0365   2.0574   2.0575
     2.0793   2.0793   2.1657   2.1657   2.2080   2.2080   2.2253   2.2253
     2.2771   2.2772   2.2878   2.2879   2.3346   2.3346   2.3903   2.3903
     2.4145   2.4145   2.4995   2.4996   2.5120   2.5120   2.5670   2.5670
     2.5820   2.5820   2.6075   2.6075   2.6299   2.6299   2.6803   2.6803
     2.6838   2.6839   2.7431   2.7431   2.9092   2.9093   2.9323   2.9324
     3.1181   3.1181   3.1358   3.1359   3.1475   3.1475   3.1763   3.1764
     3.1975   3.1975   3.2367   3.2367   3.2760   3.2760   3.2995   3.2996
     3.3316   3.3316   3.3540   3.3540   3.3934   3.3936   3.4087   3.4088
     3.4456   3.4456   3.5275   3.5275   3.5529   3.5529   3.6045   3.6045
     4.3655   4.3655   4.5938   4.5938   4.9757   4.9757   5.0772   5.0772
     5.0829   5.0829   5.1418   5.1418   5.1633   5.1633   5.2416   5.2416
     5.2658   5.2658   5.2678   5.2679   5.2698   5.2698   5.3633   5.3633
     5.4422   5.4422   5.4498   5.4498   5.5306   5.5306   5.5575   5.5575
     5.5591   5.5591   5.5830   5.5830   5.6117   5.6117   5.6896   5.6896
     5.7048   5.7048   5.7505   5.7505   5.7991   5.7991   5.8310   5.8311
     5.8591   5.8591   5.8768   5.8769   5.9631   5.9631   5.9656   5.9656
     6.0195   6.0195   6.0591   6.0591   6.1621   6.1621   6.1629   6.1629
     6.1795   6.1795   6.2542   6.2542   6.2589   6.2589   6.2755   6.2755
     6.4004   6.4004   6.4377   6.4377   6.4548   6.4548   6.4674   6.4674
     6.4891   6.4891   6.6360   6.6360   6.6602   6.6602   6.6926   6.6926
     6.6955   6.6955   6.7134   6.7135   6.7271   6.7272   6.7859   6.7859
     6.7946   6.7946   6.8093   6.8093   6.8240   6.8240   6.8735   6.8735
     6.8952   6.8952   6.9059   6.9059   6.9209   6.9209   6.9349   6.9349
     6.9492   6.9492   6.9609   6.9610   6.9734   6.9734   6.9943   6.9943
     7.0161   7.0162   7.0311   7.0311   7.0455   7.0455   7.0587   7.0587
     7.1511   7.1511   7.2153   7.2153   7.2171   7.2171   7.2345   7.2345
     7.2434   7.2434   7.2677   7.2678   7.3012   7.3013   7.3102   7.3102
     7.3386   7.3386   7.3694   7.3695   7.3846   7.3847   7.4060   7.4060
     7.4734   7.4735   7.4979   7.4979   7.5115   7.5115   7.5190   7.5191
     7.5378   7.5378   7.5572   7.5572   7.5660   7.5660   7.5822   7.5822

          k = 0.1818 0.1050 0.0000 ( 81943 PWs)   bands (ev):

   -62.1144 -62.1144 -62.1097 -62.1097 -62.1092 -62.1092 -62.0985 -62.0985
   -62.0981 -62.0981 -62.0932 -62.0932 -61.9926 -61.9926 -61.9891 -61.9891
   -61.9879 -61.9879 -61.9813 -61.9813 -61.9700 -61.9700 -61.9694 -61.9694
   -61.9623 -61.9623 -61.9600 -61.9600 -61.9586 -61.9586 -61.9578 -61.9578
   -61.9528 -61.9528 -61.9527 -61.9527 -61.9384 -61.9384 -61.9373 -61.9373
   -61.9369 -61.9369 -61.9317 -61.9317 -61.9305 -61.9305 -61.9303 -61.9303
   -37.9672 -37.9672 -37.9549 -37.9549 -37.9545 -37.9545 -37.9303 -37.9303
   -37.9287 -37.9287 -37.9175 -37.9175 -37.8481 -37.8481 -37.8433 -37.8431
   -37.8418 -37.8415 -37.8337 -37.8337 -37.8256 -37.8256 -37.8218 -37.8217
   -37.8194 -37.8193 -37.8159 -37.8158 -37.8122 -37.8122 -37.8079 -37.8079
   -37.7990 -37.7989 -37.7908 -37.7907 -37.7767 -37.7766 -37.7749 -37.7749
   -37.7631 -37.7631 -37.7474 -37.7474 -37.7432 -37.7431 -37.7248 -37.7248
   -35.5502 -35.5502 -35.5489 -35.5487 -35.5468 -35.5467 -35.5075 -35.5073
   -35.5053 -35.5051 -35.4906 -35.4906 -35.4665 -35.4663 -35.4636 -35.4635
   -35.4553 -35.4553 -35.4358 -35.4357 -35.4308 -35.4308 -35.4273 -35.4271
   -35.4166 -35.4165 -35.4147 -35.4145 -35.4110 -35.4109 -35.4061 -35.4060
   -35.3925 -35.3925 -35.3871 -35.3871 -35.3835 -35.3834 -35.3727 -35.3726
   -35.3697 -35.3697 -35.3639 -35.3639 -35.3521 -35.3520 -35.3389 -35.3389
   -35.3251 -35.3249 -35.3223 -35.3223 -35.3201 -35.3199 -35.3079 -35.3079
   -35.3026 -35.3024 -35.2971 -35.2971 -35.2923 -35.2922 -35.2878 -35.2878
   -35.2834 -35.2833 -35.2797 -35.2794 -35.2752 -35.2752 -35.2714 -35.2713
   -35.2693 -35.2692 -35.2619 -35.2617 -35.2599 -35.2599 -35.2579 -35.2579
   -35.2536 -35.2536 -35.2516 -35.2515 -35.2398 -35.2397 -35.2352 -35.2351
   -35.2257 -35.2257 -35.2106 -35.2106 -35.2001 -35.2001 -35.1555 -35.1555
   -15.1833 -15.1833 -14.8398 -14.8398 -14.7512 -14.7512 -14.6838 -14.6838
   -14.5647 -14.5647 -14.5293 -14.5293 -14.3277 -14.3277 -14.0193 -14.0192
   -13.9491 -13.9491 -13.8974 -13.8974 -13.8107 -13.8107 -13.7922 -13.7922
   -13.7622 -13.7622 -13.7336 -13.7336 -13.7167 -13.7167 -13.6848 -13.6848
   -13.6796 -13.6796 -13.6351 -13.6351 -13.6330 -13.6330 -13.6156 -13.6155
   -13.6003 -13.6002 -13.5626 -13.5626 -13.5139 -13.5139 -13.4517 -13.4516
   -13.4426 -13.4425 -13.4176 -13.4176 -13.3931 -13.3931 -13.3374 -13.3374
   -13.3361 -13.3361 -13.3155 -13.3155 -13.3034 -13.3033 -13.2850 -13.2850
   -13.2679 -13.2678 -13.2661 -13.2660 -13.2529 -13.2528 -13.2416 -13.2416
   -13.2286 -13.2286 -13.1954 -13.1953 -13.1849 -13.1849 -13.1809 -13.1809
   -13.1303 -13.1303 -13.1053 -13.1053 -13.0877 -13.0877 -13.0760 -13.0760
   -12.9036 -12.9036 -12.7630 -12.7630 -12.7156 -12.7156 -12.7017 -12.7017
   -12.4203 -12.4203 -12.4197 -12.4197  -6.7760  -6.7760  -6.7057  -6.7056
    -6.7033  -6.7033  -6.6848  -6.6848  -6.5767  -6.5767  -6.5686  -6.5686
    -6.5000  -6.5000  -6.4702  -6.4702  -6.4288  -6.4288  -6.3851  -6.3850
    -6.3677  -6.3676  -6.3457  -6.3457  -6.3388  -6.3388  -6.2720  -6.2720
    -6.2676  -6.2676  -6.2495  -6.2494  -6.2485  -6.2484  -6.2399  -6.2398
    -6.2231  -6.2231  -6.2088  -6.2088  -6.1902  -6.1901  -6.1710  -6.1710
    -6.1543  -6.1543  -6.1195  -6.1195  -6.1093  -6.1093  -6.1016  -6.1016
    -6.0985  -6.0985  -5.9169  -5.9166  -5.9106  -5.9103  -5.8800  -5.8799
    -5.7801  -5.7801  -5.7399  -5.7399  -5.7333  -5.7333  -5.7120  -5.7120
    -5.6018  -5.6018  -5.5832  -5.5832  -5.5181  -5.5181  -5.4919  -5.4919
    -5.4090  -5.4090  -5.2945  -5.2944  -5.2242  -5.2242  -5.1385  -5.1385
    -5.1244  -5.1244  -5.0984  -5.0984  -5.0759  -5.0759  -5.0688  -5.0688
    -5.0576  -5.0576  -5.0490  -5.0490  -5.0152  -5.0152  -5.0105  -5.0104
    -4.9972  -4.9971  -4.9544  -4.9543  -4.9377  -4.9377  -4.9280  -4.9280
    -4.8907  -4.8907  -4.8772  -4.8772  -4.8506  -4.8506  -4.8212  -4.8212
    -4.7969  -4.7969  -4.7464  -4.7464  -4.6569  -4.6569  -4.6144  -4.6144
    -4.5784  -4.5784  -4.5712  -4.5712  -4.5178  -4.5178  -4.4649  -4.4648
    -4.4517  -4.4517  -4.4329  -4.4328  -4.4143  -4.4142  -4.3966  -4.3965
    -4.3656  -4.3656  -4.3625  -4.3625  -4.3591  -4.3591  -4.3505  -4.3504
    -4.3448  -4.3447  -4.2776  -4.2775  -4.2643  -4.2642  -4.2490  -4.2490
    -4.2306  -4.2305  -4.2227  -4.2226  -4.1946  -4.1945  -4.1855  -4.1855
    -4.1786  -4.1786  -4.1568  -4.1567  -4.1371  -4.1371  -4.1265  -4.1265
    -4.1067  -4.1067  -4.0729  -4.0729  -4.0325  -4.0325  -3.9850  -3.9850
    -3.8075  -3.8075  -3.7961  -3.7961  -3.7362  -3.7361  -3.7226  -3.7226
    -3.7130  -3.7130  -3.7080  -3.7079  -3.6546  -3.6546  -3.5365  -3.5365
    -3.5255  -3.5255  -3.4322  -3.4322  -3.4162  -3.4162  -3.4077  -3.4076
    -3.4044  -3.4043  -3.3614  -3.3614  -3.3165  -3.3165  -3.2702  -3.2701
    -3.2518  -3.2517  -3.2363  -3.2362  -3.1527  -3.1527  -3.1294  -3.1294
    -3.1148  -3.1148  -3.1084  -3.1084  -3.0978  -3.0978  -3.0592  -3.0592
    -3.0259  -3.0259  -3.0102  -3.0101  -3.0019  -3.0018  -2.9913  -2.9913
    -2.9851  -2.9851  -2.9606  -2.9606  -2.9380  -2.9380  -2.9283  -2.9283
    -2.8904  -2.8904  -2.8418  -2.8418  -2.8245  -2.8245  -2.7714  -2.7714
    -2.7527  -2.7527  -2.7284  -2.7283  -2.7234  -2.7233  -2.5695  -2.5695
    -2.4903  -2.4903  -2.4654  -2.4654  -2.4015  -2.4015  -2.3869  -2.3869
    -2.3559  -2.3559  -2.3410  -2.3410  -2.3321  -2.3320  -2.2936  -2.2936
    -2.2525  -2.2525  -2.2296  -2.2295  -2.2220  -2.2219  -2.2137  -2.2136
    -2.1906  -2.1906  -2.1819  -2.1818  -2.1462  -2.1462  -2.1144  -2.1144
    -2.0715  -2.0715  -2.0177  -2.0177  -1.9640  -1.9639  -1.9500  -1.9499
    -1.9092  -1.9091  -1.8836  -1.8835  -1.8524  -1.8524  -1.8275  -1.8274
    -1.7889  -1.7889  -1.7667  -1.7666  -1.7449  -1.7449  -1.7384  -1.7383
    -1.6980  -1.6980  -1.6417  -1.6417  -1.6171  -1.6171  -1.5809  -1.5808
    -1.5233  -1.5233  -1.4792  -1.4791  -1.4607  -1.4607  -1.4173  -1.4173
    -1.4053  -1.4052  -1.3404  -1.3403  -1.2623  -1.2623  -1.1775  -1.1775
    -0.8168  -0.8168  -0.8130  -0.8130  -0.4963  -0.4963  -0.4573  -0.4573
    -0.0995  -0.0995   0.7764   0.7765   0.8128   0.8129   0.8480   0.8480
     0.8880   0.8881   0.9114   0.9114   0.9296   0.9296   0.9714   0.9715
     0.9811   0.9811   0.9940   0.9940   1.0134   1.0135   1.0273   1.0273
     1.0452   1.0452   1.0484   1.0484   1.0668   1.0668   1.0713   1.0713
     1.0831   1.0831   1.0929   1.0930   1.1211   1.1211   1.1524   1.1525
     1.1636   1.1636   1.1994   1.1994   1.2298   1.2299   1.2386   1.2386
     1.2648   1.2648   1.3201   1.3202   1.3484   1.3484   1.3649   1.3649
     1.3888   1.3888   1.3958   1.3959   1.4012   1.4012   1.4168   1.4169
     1.4267   1.4267   1.4571   1.4572   1.4761   1.4761   1.4847   1.4847
     1.4942   1.4944   1.5001   1.5002   1.5073   1.5075   1.5195   1.5196
     1.5394   1.5394   1.5561   1.5561   1.5923   1.5923   1.6074   1.6075
     1.6269   1.6271   1.6723   1.6723   1.7300   1.7301   1.7515   1.7515
     1.7669   1.7669   1.7802   1.7802   1.8153   1.8154   1.8532   1.8532
     1.8750   1.8750   1.8811   1.8811   1.9181   1.9181   1.9367   1.9368
     1.9408   1.9408   2.0324   2.0325   2.0349   2.0349   2.0464   2.0464
     2.0873   2.0874   2.1518   2.1518   2.2106   2.2106   2.2325   2.2326
     2.2522   2.2522   2.2871   2.2871   2.3559   2.3560   2.3901   2.3901
     2.4124   2.4124   2.4811   2.4811   2.5274   2.5274   2.5520   2.5520
     2.5732   2.5732   2.6171   2.6171   2.6505   2.6505   2.6960   2.6960
     2.7066   2.7066   2.7590   2.7590   2.9058   2.9058   2.9334   2.9335
     3.1054   3.1054   3.1291   3.1292   3.1439   3.1439   3.1665   3.1666
     3.1819   3.1819   3.2319   3.2319   3.2563   3.2564   3.2903   3.2903
     3.3174   3.3176   3.3423   3.3424   3.3953   3.3955   3.4011   3.4013
     3.4469   3.4469   3.5271   3.5271   3.5731   3.5732   3.6295   3.6296
     4.3817   4.3817   4.6050   4.6050   4.9204   4.9204   5.0564   5.0564
     5.0617   5.0617   5.0873   5.0873   5.1869   5.1869   5.2196   5.2196
     5.2428   5.2428   5.3106   5.3106   5.3125   5.3125   5.4288   5.4288
     5.4608   5.4608   5.4848   5.4848   5.4947   5.4947   5.5501   5.5501
     5.5728   5.5728   5.5953   5.5953   5.6292   5.6292   5.6662   5.6662
     5.6881   5.6881   5.7789   5.7789   5.8015   5.8015   5.8306   5.8306
     5.8719   5.8720   5.9248   5.9248   5.9418   5.9418   5.9450   5.9450
     6.0736   6.0736   6.1159   6.1159   6.1736   6.1736   6.1868   6.1868
     6.2079   6.2079   6.2089   6.2089   6.2575   6.2575   6.3331   6.3331
     6.3590   6.3590   6.3738   6.3738   6.4137   6.4137   6.4663   6.4663
     6.4885   6.4885   6.6552   6.6553   6.6750   6.6750   6.6790   6.6791
     6.6987   6.6987   6.7007   6.7007   6.7178   6.7178   6.7819   6.7819
     6.7906   6.7906   6.8053   6.8053   6.8133   6.8133   6.8219   6.8219
     6.8769   6.8769   6.9028   6.9028   6.9387   6.9387   6.9559   6.9559
     6.9949   6.9949   7.0061   7.0061   7.0126   7.0126   7.0232   7.0232
     7.0356   7.0356   7.0419   7.0419   7.0552   7.0552   7.0736   7.0736
     7.1373   7.1373   7.1544   7.1544   7.1628   7.1628   7.2371   7.2371
     7.2548   7.2548   7.2580   7.2580   7.2819   7.2819   7.3182   7.3183
     7.3344   7.3344   7.3709   7.3709   7.3739   7.3740   7.4178   7.4179
     7.4371   7.4372   7.4723   7.4723   7.4977   7.4977   7.5195   7.5195
     7.5390   7.5390   7.5604   7.5604   7.5661   7.5661   7.5755   7.5755

          k = 0.2273 0.1312 0.0000 ( 81975 PWs)   bands (ev):

   -62.1144 -62.1144 -62.1097 -62.1097 -62.1093 -62.1093 -62.0985 -62.0985
   -62.0981 -62.0981 -62.0932 -62.0932 -61.9926 -61.9926 -61.9891 -61.9891
   -61.9879 -61.9879 -61.9814 -61.9814 -61.9700 -61.9700 -61.9694 -61.9694
   -61.9623 -61.9623 -61.9600 -61.9600 -61.9586 -61.9586 -61.9577 -61.9577
   -61.9528 -61.9528 -61.9528 -61.9528 -61.9384 -61.9384 -61.9373 -61.9373
   -61.9369 -61.9369 -61.9317 -61.9317 -61.9305 -61.9305 -61.9303 -61.9303
   -37.9672 -37.9672 -37.9549 -37.9549 -37.9545 -37.9545 -37.9303 -37.9303
   -37.9288 -37.9287 -37.9175 -37.9175 -37.8481 -37.8481 -37.8433 -37.8431
   -37.8416 -37.8413 -37.8340 -37.8340 -37.8256 -37.8256 -37.8221 -37.8220
   -37.8199 -37.8199 -37.8163 -37.8162 -37.8122 -37.8122 -37.8075 -37.8074
   -37.7974 -37.7973 -37.7902 -37.7901 -37.7774 -37.7773 -37.7755 -37.7754
   -37.7647 -37.7647 -37.7473 -37.7472 -37.7416 -37.7416 -37.7253 -37.7253
   -35.5502 -35.5502 -35.5490 -35.5488 -35.5469 -35.5467 -35.5075 -35.5073
   -35.5053 -35.5050 -35.4903 -35.4903 -35.4668 -35.4667 -35.4635 -35.4633
   -35.4557 -35.4557 -35.4358 -35.4357 -35.4305 -35.4305 -35.4261 -35.4259
   -35.4177 -35.4177 -35.4144 -35.4143 -35.4109 -35.4108 -35.4060 -35.4059
   -35.3919 -35.3919 -35.3880 -35.3879 -35.3827 -35.3825 -35.3737 -35.3737
   -35.3695 -35.3695 -35.3637 -35.3637 -35.3502 -35.3501 -35.3406 -35.3406
   -35.3264 -35.3263 -35.3226 -35.3226 -35.3198 -35.3196 -35.3070 -35.3070
   -35.3043 -35.3042 -35.2969 -35.2969 -35.2921 -35.2919 -35.2871 -35.2871
   -35.2830 -35.2830 -35.2799 -35.2796 -35.2744 -35.2744 -35.2714 -35.2714
   -35.2686 -35.2685 -35.2621 -35.2619 -35.2604 -35.2604 -35.2583 -35.2582
   -35.2534 -35.2534 -35.2507 -35.2505 -35.2410 -35.2409 -35.2359 -35.2359
   -35.2273 -35.2273 -35.2101 -35.2100 -35.1967 -35.1967 -35.1570 -35.1569
   -15.1733 -15.1733 -14.8747 -14.8747 -14.7649 -14.7649 -14.6904 -14.6904
   -14.5341 -14.5341 -14.4909 -14.4909 -14.3010 -14.3010 -14.0630 -14.0629
   -13.9866 -13.9865 -13.8938 -13.8938 -13.8139 -13.8139 -13.7935 -13.7935
   -13.7751 -13.7751 -13.7581 -13.7581 -13.7215 -13.7215 -13.6859 -13.6859
   -13.6671 -13.6671 -13.6238 -13.6238 -13.6188 -13.6188 -13.6020 -13.6020
   -13.5848 -13.5847 -13.5463 -13.5462 -13.5065 -13.5065 -13.4402 -13.4401
   -13.4352 -13.4352 -13.4305 -13.4305 -13.4078 -13.4078 -13.3382 -13.3382
   -13.3362 -13.3361 -13.3240 -13.3240 -13.3095 -13.3094 -13.2818 -13.2818
   -13.2609 -13.2608 -13.2559 -13.2557 -13.2543 -13.2542 -13.2371 -13.2371
   -13.2341 -13.2341 -13.1964 -13.1964 -13.1855 -13.1855 -13.1801 -13.1801
   -13.1354 -13.1354 -13.1112 -13.1112 -13.0855 -13.0855 -13.0759 -13.0759
   -12.9028 -12.9028 -12.7628 -12.7628 -12.7166 -12.7166 -12.7027 -12.7027
   -12.4204 -12.4204 -12.4198 -12.4198  -6.7972  -6.7972  -6.7118  -6.7118
    -6.7077  -6.7077  -6.6766  -6.6766  -6.5734  -6.5734  -6.5634  -6.5634
    -6.4778  -6.4777  -6.4717  -6.4716  -6.4364  -6.4364  -6.3980  -6.3980
    -6.3801  -6.3801  -6.3676  -6.3676  -6.3441  -6.3441  -6.2808  -6.2808
    -6.2681  -6.2681  -6.2588  -6.2588  -6.2289  -6.2288  -6.2242  -6.2242
    -6.2182  -6.2180  -6.2090  -6.2090  -6.1884  -6.1884  -6.1685  -6.1685
    -6.1337  -6.1336  -6.1088  -6.1087  -6.0879  -6.0879  -6.0810  -6.0810
    -6.0796  -6.0796  -5.9075  -5.9073  -5.9020  -5.9018  -5.8702  -5.8701
    -5.8095  -5.8095  -5.7677  -5.7677  -5.7557  -5.7557  -5.7063  -5.7063
    -5.6326  -5.6325  -5.6186  -5.6186  -5.5082  -5.5081  -5.5003  -5.5003
    -5.3732  -5.3732  -5.3007  -5.3007  -5.2273  -5.2273  -5.1454  -5.1454
    -5.1271  -5.1271  -5.1004  -5.1004  -5.0739  -5.0738  -5.0625  -5.0625
    -5.0475  -5.0475  -5.0404  -5.0404  -5.0017  -5.0016  -4.9992  -4.9991
    -4.9501  -4.9501  -4.9444  -4.9444  -4.9345  -4.9344  -4.9141  -4.9141
    -4.8962  -4.8961  -4.8875  -4.8875  -4.8606  -4.8606  -4.8247  -4.8247
    -4.8026  -4.8026  -4.7608  -4.7608  -4.6509  -4.6509  -4.6329  -4.6329
    -4.6199  -4.6199  -4.5727  -4.5727  -4.5045  -4.5045  -4.4766  -4.4765
    -4.4735  -4.4735  -4.4226  -4.4225  -4.4102  -4.4102  -4.3813  -4.3812
    -4.3625  -4.3624  -4.3586  -4.3586  -4.3505  -4.3505  -4.3374  -4.3374
    -4.3323  -4.3322  -4.2875  -4.2874  -4.2748  -4.2747  -4.2609  -4.2609
    -4.2393  -4.2392  -4.2304  -4.2303  -4.2002  -4.2001  -4.1906  -4.1905
    -4.1822  -4.1822  -4.1636  -4.1635  -4.1523  -4.1522  -4.1263  -4.1263
    -4.1062  -4.1062  -4.0558  -4.0558  -4.0081  -4.0081  -3.9821  -3.9821
    -3.8072  -3.8072  -3.7986  -3.7986  -3.7495  -3.7495  -3.7374  -3.7374
    -3.7236  -3.7236  -3.7130  -3.7130  -3.6580  -3.6580  -3.5939  -3.5939
    -3.5534  -3.5533  -3.4440  -3.4440  -3.4373  -3.4373  -3.4172  -3.4172
    -3.3665  -3.3664  -3.3238  -3.3238  -3.2910  -3.2909  -3.2536  -3.2536
    -3.2328  -3.2328  -3.2211  -3.2211  -3.1479  -3.1479  -3.1332  -3.1332
    -3.1057  -3.1057  -3.1029  -3.1029  -3.0909  -3.0909  -3.0826  -3.0826
    -3.0003  -3.0003  -2.9934  -2.9933  -2.9858  -2.9858  -2.9728  -2.9728
    -2.9624  -2.9624  -2.9525  -2.9524  -2.9326  -2.9326  -2.9266  -2.9266
    -2.8836  -2.8836  -2.8214  -2.8214  -2.8077  -2.8077  -2.7556  -2.7556
    -2.7445  -2.7444  -2.7332  -2.7332  -2.7114  -2.7114  -2.5509  -2.5509
    -2.5244  -2.5244  -2.4855  -2.4855  -2.4536  -2.4535  -2.4042  -2.4042
    -2.3928  -2.3927  -2.3758  -2.3758  -2.3495  -2.3495  -2.3282  -2.3281
    -2.2641  -2.2641  -2.2373  -2.2373  -2.2210  -2.2209  -2.2148  -2.2147
    -2.2025  -2.2024  -2.1783  -2.1783  -2.1386  -2.1386  -2.0939  -2.0939
    -2.0592  -2.0592  -2.0289  -2.0289  -1.9577  -1.9577  -1.9460  -1.9459
    -1.8960  -1.8960  -1.8755  -1.8754  -1.8444  -1.8443  -1.8209  -1.8209
    -1.8069  -1.8068  -1.7558  -1.7558  -1.7487  -1.7487  -1.7289  -1.7288
    -1.7033  -1.7033  -1.6419  -1.6418  -1.6112  -1.6112  -1.5801  -1.5800
    -1.5189  -1.5189  -1.4883  -1.4882  -1.4550  -1.4550  -1.4126  -1.4126
    -1.3840  -1.3840  -1.3554  -1.3554  -1.2621  -1.2621  -1.1803  -1.1803
    -0.8155  -0.8155  -0.8111  -0.8111  -0.4954  -0.4954  -0.4561  -0.4561
    -0.0991  -0.0991   0.7569   0.7569   0.7975   0.7976   0.8427   0.8427
     0.8945   0.8946   0.9106   0.9106   0.9430   0.9430   0.9827   0.9828
     0.9890   0.9891   1.0068   1.0068   1.0215   1.0216   1.0364   1.0365
     1.0469   1.0469   1.0549   1.0549   1.0700   1.0701   1.0762   1.0762
     1.0853   1.0853   1.0964   1.0964   1.1205   1.1205   1.1575   1.1575
     1.1694   1.1694   1.2088   1.2088   1.2268   1.2269   1.2483   1.2483
     1.2703   1.2703   1.3047   1.3048   1.3318   1.3318   1.3567   1.3568
     1.3862   1.3862   1.3909   1.3910   1.3966   1.3966   1.4167   1.4168
     1.4300   1.4300   1.4578   1.4580   1.4749   1.4751   1.4815   1.4815
     1.4902   1.4902   1.5041   1.5042   1.5119   1.5119   1.5259   1.5261
     1.5407   1.5407   1.5592   1.5593   1.6008   1.6009   1.6138   1.6138
     1.6176   1.6177   1.6793   1.6793   1.7283   1.7284   1.7437   1.7437
     1.7618   1.7619   1.7953   1.7954   1.8245   1.8246   1.8310   1.8310
     1.8488   1.8489   1.8894   1.8895   1.9045   1.9045   1.9154   1.9154
     1.9579   1.9579   2.0075   2.0076   2.0352   2.0352   2.0483   2.0483
     2.0994   2.0994   2.1439   2.1439   2.2015   2.2016   2.2217   2.2217
     2.2537   2.2537   2.2860   2.2860   2.3624   2.3624   2.3849   2.3849
     2.4155   2.4155   2.4588   2.4588   2.5226   2.5226   2.5392   2.5393
     2.5875   2.5875   2.6346   2.6346   2.6713   2.6713   2.7076   2.7076
     2.7357   2.7357   2.7776   2.7776   2.9033   2.9034   2.9353   2.9354
     3.0855   3.0855   3.1226   3.1226   3.1378   3.1379   3.1577   3.1579
     3.1669   3.1670   3.2210   3.2210   3.2348   3.2349   3.2813   3.2813
     3.3013   3.3014   3.3257   3.3258   3.3977   3.3977   3.4030   3.4030
     3.4482   3.4482   3.5265   3.5266   3.5926   3.5926   3.6525   3.6525
     4.4019   4.4019   4.6194   4.6194   4.8669   4.8669   5.0348   5.0348
     5.0385   5.0385   5.0435   5.0435   5.2003   5.2003   5.2157   5.2157
     5.2229   5.2229   5.3560   5.3560   5.3584   5.3584   5.3873   5.3873
     5.5013   5.5013   5.5298   5.5298   5.5304   5.5304   5.5417   5.5417
     5.5529   5.5529   5.6217   5.6217   5.6388   5.6388   5.6675   5.6675
     5.7025   5.7025   5.7460   5.7460   5.8243   5.8243   5.8725   5.8725
     5.9165   5.9165   5.9245   5.9245   5.9263   5.9263   5.9791   5.9792
     6.1002   6.1003   6.1103   6.1103   6.1375   6.1375   6.1726   6.1726
     6.2551   6.2551   6.2564   6.2564   6.2795   6.2795   6.2820   6.2820
     6.2977   6.2977   6.4079   6.4079   6.4267   6.4267   6.4645   6.4645
     6.4874   6.4874   6.6204   6.6204   6.6582   6.6582   6.6786   6.6786
     6.6914   6.6914   6.7052   6.7052   6.7068   6.7068   6.7417   6.7417
     6.7851   6.7851   6.7917   6.7917   6.8165   6.8165   6.8173   6.8173
     6.8322   6.8322   6.9186   6.9186   6.9767   6.9767   6.9923   6.9923
     7.0010   7.0010   7.0039   7.0039   7.0121   7.0121   7.0396   7.0396
     7.0637   7.0637   7.0689   7.0689   7.0839   7.0839   7.1036   7.1036
     7.1209   7.1209   7.1326   7.1326   7.1532   7.1532   7.2241   7.2241
     7.2521   7.2522   7.2742   7.2742   7.2925   7.2925   7.2971   7.2971
     7.3011   7.3011   7.3105   7.3106   7.3770   7.3770   7.4292   7.4292
     7.4712   7.4712   7.4875   7.4875   7.4972   7.4972   7.5066   7.5066
     7.5394   7.5394   7.5567   7.5567   7.5731   7.5731   7.5771   7.5772

          k = 0.2727 0.1575 0.0000 ( 81971 PWs)   bands (ev):

   -62.1144 -62.1144 -62.1097 -62.1097 -62.1093 -62.1093 -62.0985 -62.0985
   -62.0981 -62.0981 -62.0932 -62.0932 -61.9926 -61.9926 -61.9891 -61.9891
   -61.9879 -61.9879 -61.9814 -61.9814 -61.9700 -61.9700 -61.9694 -61.9694
   -61.9623 -61.9623 -61.9600 -61.9600 -61.9586 -61.9586 -61.9576 -61.9576
   -61.9529 -61.9529 -61.9528 -61.9528 -61.9384 -61.9384 -61.9373 -61.9373
   -61.9369 -61.9369 -61.9316 -61.9316 -61.9305 -61.9305 -61.9304 -61.9304
   -37.9672 -37.9672 -37.9549 -37.9549 -37.9545 -37.9545 -37.9303 -37.9303
   -37.9288 -37.9288 -37.9174 -37.9174 -37.8480 -37.8479 -37.8433 -37.8431
   -37.8413 -37.8410 -37.8344 -37.8344 -37.8256 -37.8256 -37.8224 -37.8223
   -37.8202 -37.8202 -37.8166 -37.8166 -37.8123 -37.8123 -37.8071 -37.8070
   -37.7957 -37.7956 -37.7894 -37.7893 -37.7782 -37.7781 -37.7762 -37.7761
   -37.7661 -37.7661 -37.7471 -37.7471 -37.7400 -37.7400 -37.7259 -37.7259
   -35.5501 -35.5501 -35.5491 -35.5489 -35.5469 -35.5467 -35.5076 -35.5074
   -35.5052 -35.5050 -35.4900 -35.4900 -35.4671 -35.4670 -35.4633 -35.4632
   -35.4561 -35.4561 -35.4358 -35.4357 -35.4302 -35.4301 -35.4250 -35.4248
   -35.4189 -35.4189 -35.4141 -35.4140 -35.4106 -35.4105 -35.4058 -35.4058
   -35.3917 -35.3916 -35.3889 -35.3888 -35.3818 -35.3816 -35.3749 -35.3749
   -35.3691 -35.3690 -35.3635 -35.3635 -35.3483 -35.3482 -35.3421 -35.3421
   -35.3279 -35.3277 -35.3230 -35.3229 -35.3196 -35.3194 -35.3065 -35.3065
   -35.3057 -35.3056 -35.2967 -35.2967 -35.2918 -35.2916 -35.2868 -35.2868
   -35.2826 -35.2825 -35.2800 -35.2798 -35.2737 -35.2737 -35.2714 -35.2713
   -35.2678 -35.2677 -35.2627 -35.2625 -35.2606 -35.2606 -35.2586 -35.2585
   -35.2532 -35.2532 -35.2497 -35.2495 -35.2424 -35.2422 -35.2368 -35.2367
   -35.2287 -35.2286 -35.2095 -35.2095 -35.1932 -35.1931 -35.1586 -35.1586
   -15.1614 -15.1614 -14.9076 -14.9075 -14.7765 -14.7765 -14.6968 -14.6968
   -14.5019 -14.5019 -14.4528 -14.4528 -14.2715 -14.2715 -14.1065 -14.1064
   -14.0238 -14.0238 -13.8893 -13.8893 -13.8301 -13.8301 -13.7951 -13.7951
   -13.7873 -13.7873 -13.7721 -13.7721 -13.7257 -13.7257 -13.6874 -13.6874
   -13.6681 -13.6681 -13.6117 -13.6117 -13.6040 -13.6040 -13.5910 -13.5910
   -13.5647 -13.5645 -13.5201 -13.5199 -13.4989 -13.4989 -13.4529 -13.4529
   -13.4288 -13.4288 -13.4217 -13.4217 -13.4189 -13.4188 -13.3420 -13.3420
   -13.3363 -13.3363 -13.3306 -13.3306 -13.3189 -13.3188 -13.2812 -13.2812
   -13.2730 -13.2728 -13.2455 -13.2454 -13.2406 -13.2405 -13.2382 -13.2382
   -13.2306 -13.2306 -13.1978 -13.1978 -13.1858 -13.1858 -13.1792 -13.1791
   -13.1412 -13.1412 -13.1180 -13.1180 -13.0833 -13.0832 -13.0758 -13.0758
   -12.9019 -12.9019 -12.7625 -12.7625 -12.7177 -12.7176 -12.7036 -12.7036
   -12.4204 -12.4204 -12.4199 -12.4199  -6.8160  -6.8160  -6.7170  -6.7170
    -6.7105  -6.7105  -6.6646  -6.6646  -6.5824  -6.5823  -6.5670  -6.5669
    -6.4690  -6.4690  -6.4577  -6.4576  -6.4221  -6.4221  -6.4095  -6.4095
    -6.3935  -6.3935  -6.3911  -6.3910  -6.3423  -6.3423  -6.2899  -6.2899
    -6.2719  -6.2719  -6.2679  -6.2679  -6.2276  -6.2276  -6.2147  -6.2147
    -6.2032  -6.2030  -6.1936  -6.1935  -6.1913  -6.1913  -6.1681  -6.1681
    -6.1175  -6.1175  -6.0982  -6.0982  -6.0647  -6.0647  -6.0599  -6.0598
    -6.0564  -6.0563  -5.8966  -5.8964  -5.8920  -5.8918  -5.8610  -5.8609
    -5.8393  -5.8393  -5.8010  -5.8010  -5.7804  -5.7804  -5.6990  -5.6990
    -5.6685  -5.6684  -5.6568  -5.6568  -5.4994  -5.4994  -5.4926  -5.4926
    -5.3358  -5.3358  -5.3081  -5.3081  -5.2278  -5.2278  -5.1515  -5.1515
    -5.1296  -5.1295  -5.1030  -5.1030  -5.0704  -5.0704  -5.0581  -5.0581
    -5.0378  -5.0378  -5.0287  -5.0287  -4.9900  -4.9900  -4.9846  -4.9846
    -4.9557  -4.9557  -4.9455  -4.9455  -4.9320  -4.9320  -4.9037  -4.9037
    -4.8863  -4.8862  -4.8707  -4.8707  -4.8435  -4.8435  -4.8305  -4.8305
    -4.8067  -4.8067  -4.7752  -4.7752  -4.6967  -4.6967  -4.6513  -4.6512
    -4.6302  -4.6301  -4.5698  -4.5698  -4.5015  -4.5015  -4.4970  -4.4970
    -4.4919  -4.4918  -4.4133  -4.4132  -4.3993  -4.3993  -4.3695  -4.3695
    -4.3649  -4.3649  -4.3526  -4.3526  -4.3333  -4.3333  -4.3265  -4.3265
    -4.3115  -4.3115  -4.2951  -4.2950  -4.2842  -4.2842  -4.2722  -4.2722
    -4.2476  -4.2475  -4.2382  -4.2381  -4.2213  -4.2213  -4.2075  -4.2074
    -4.1926  -4.1925  -4.1790  -4.1790  -4.1489  -4.1488  -4.1034  -4.1034
    -4.0873  -4.0873  -4.0343  -4.0343  -4.0197  -4.0196  -3.9425  -3.9425
    -3.8098  -3.8098  -3.8031  -3.8031  -3.7664  -3.7664  -3.7585  -3.7585
    -3.7270  -3.7269  -3.7129  -3.7129  -3.6644  -3.6644  -3.6546  -3.6546
    -3.5748  -3.5748  -3.4721  -3.4720  -3.4685  -3.4685  -3.4286  -3.4286
    -3.3637  -3.3637  -3.2926  -3.2926  -3.2573  -3.2572  -3.2215  -3.2215
    -3.2150  -3.2150  -3.1956  -3.1956  -3.1767  -3.1767  -3.1152  -3.1152
    -3.1074  -3.1074  -3.1038  -3.1038  -3.0690  -3.0689  -3.0563  -3.0563
    -2.9874  -2.9874  -2.9728  -2.9728  -2.9696  -2.9696  -2.9533  -2.9532
    -2.9517  -2.9517  -2.9306  -2.9306  -2.9239  -2.9239  -2.9111  -2.9110
    -2.8747  -2.8747  -2.8047  -2.8047  -2.7906  -2.7905  -2.7420  -2.7420
    -2.7355  -2.7355  -2.7305  -2.7305  -2.6985  -2.6985  -2.5707  -2.5706
    -2.5554  -2.5553  -2.5067  -2.5067  -2.4856  -2.4856  -2.4493  -2.4492
    -2.4199  -2.4199  -2.3997  -2.3997  -2.3685  -2.3685  -2.3615  -2.3615
    -2.3014  -2.3014  -2.2613  -2.2613  -2.2277  -2.2277  -2.2070  -2.2069
    -2.1917  -2.1916  -2.1671  -2.1671  -2.1305  -2.1305  -2.0742  -2.0742
    -2.0477  -2.0477  -2.0365  -2.0365  -1.9518  -1.9518  -1.9424  -1.9423
    -1.8865  -1.8865  -1.8723  -1.8723  -1.8443  -1.8442  -1.8330  -1.8330
    -1.8009  -1.8009  -1.7649  -1.7649  -1.7361  -1.7360  -1.7238  -1.7238
    -1.7002  -1.7002  -1.6364  -1.6364  -1.6040  -1.6040  -1.5780  -1.5780
    -1.5157  -1.5157  -1.5000  -1.4999  -1.4485  -1.4485  -1.4151  -1.4151
    -1.3725  -1.3725  -1.3558  -1.3557  -1.2627  -1.2627  -1.1839  -1.1839
    -0.8140  -0.8140  -0.8091  -0.8091  -0.4944  -0.4944  -0.4547  -0.4547
    -0.0987  -0.0987   0.7388   0.7388   0.7840   0.7840   0.8418   0.8419
     0.8997   0.8998   0.9151   0.9151   0.9564   0.9564   0.9903   0.9903
     0.9962   0.9962   1.0113   1.0113   1.0277   1.0277   1.0393   1.0393
     1.0507   1.0507   1.0617   1.0618   1.0748   1.0749   1.0825   1.0825
     1.0902   1.0902   1.1010   1.1010   1.1223   1.1223   1.1614   1.1616
     1.1760   1.1760   1.2132   1.2133   1.2232   1.2233   1.2461   1.2462
     1.2864   1.2865   1.2953   1.2954   1.3225   1.3225   1.3499   1.3500
     1.3842   1.3842   1.3867   1.3867   1.3936   1.3936   1.4164   1.4164
     1.4346   1.4347   1.4492   1.4493   1.4663   1.4664   1.4801   1.4801
     1.4944   1.4944   1.5084   1.5084   1.5121   1.5122   1.5381   1.5381
     1.5508   1.5508   1.5697   1.5698   1.5933   1.5934   1.6046   1.6047
     1.6379   1.6379   1.6823   1.6823   1.7025   1.7026   1.7420   1.7420
     1.7654   1.7654   1.7892   1.7892   1.8075   1.8075   1.8228   1.8228
     1.8564   1.8565   1.8635   1.8635   1.8956   1.8956   1.9307   1.9307
     1.9737   1.9737   1.9788   1.9788   2.0344   2.0344   2.0551   2.0551
     2.1058   2.1059   2.1447   2.1447   2.1926   2.1927   2.1948   2.1948
     2.2705   2.2705   2.2823   2.2823   2.3482   2.3482   2.3888   2.3888
     2.3980   2.3980   2.4537   2.4537   2.5013   2.5013   2.5300   2.5300
     2.6176   2.6177   2.6555   2.6556   2.6953   2.6953   2.7180   2.7180
     2.7655   2.7655   2.7981   2.7981   2.9033   2.9033   2.9370   2.9370
     3.0610   3.0610   3.1111   3.1111   3.1270   3.1272   3.1506   3.1507
     3.1563   3.1563   3.2064   3.2064   3.2138   3.2139   3.2693   3.2693
     3.2882   3.2883   3.3097   3.3098   3.3994   3.3995   3.4082   3.4083
     3.4494   3.4494   3.5259   3.5259   3.6105   3.6105   3.6730   3.6730
     4.4257   4.4257   4.6370   4.6370   4.8156   4.8156   4.9848   4.9848
     5.0234   5.0234   5.0283   5.0283   5.1840   5.1840   5.2062   5.2062
     5.2487   5.2487   5.3256   5.3256   5.4047   5.4047   5.4073   5.4073
     5.5097   5.5098   5.5314   5.5314   5.5752   5.5752   5.5789   5.5789
     5.5911   5.5911   5.6135   5.6136   5.6411   5.6411   5.6678   5.6678
     5.6935   5.6935   5.7783   5.7783   5.8802   5.8802   5.9069   5.9069
     5.9096   5.9096   5.9238   5.9238   5.9673   5.9674   6.0205   6.0205
     6.0359   6.0359   6.0525   6.0525   6.1866   6.1866   6.2067   6.2067
     6.2130   6.2130   6.2225   6.2225   6.2751   6.2751   6.3068   6.3068
[...]
   -37.7600 -37.7600 -37.7477 -37.7473 -37.7464 -37.7460 -37.7240 -37.7240
   -35.5504 -35.5502 -35.5487 -35.5486 -35.5467 -35.5466 -35.5075 -35.5073
   -35.5053 -35.5051 -35.4910 -35.4909 -35.4658 -35.4656 -35.4639 -35.4637
   -35.4547 -35.4547 -35.4354 -35.4353 -35.4316 -35.4312 -35.4296 -35.4293
   -35.4159 -35.4159 -35.4137 -35.4136 -35.4107 -35.4105 -35.4058 -35.4056
   -35.3945 -35.3944 -35.3864 -35.3859 -35.3841 -35.3839 -35.3717 -35.3716
   -35.3691 -35.3689 -35.3644 -35.3643 -35.3553 -35.3553 -35.3360 -35.3358
   -35.3229 -35.3229 -35.3220 -35.3218 -35.3212 -35.3203 -35.3098 -35.3094
   -35.2992 -35.2991 -35.2971 -35.2967 -35.2929 -35.2923 -35.2900 -35.2899
   -35.2835 -35.2834 -35.2792 -35.2789 -35.2771 -35.2770 -35.2712 -35.2712
   -35.2703 -35.2703 -35.2617 -35.2617 -35.2584 -35.2583 -35.2573 -35.2572
   -35.2544 -35.2542 -35.2530 -35.2530 -35.2380 -35.2379 -35.2342 -35.2340
   -35.2217 -35.2214 -35.2128 -35.2116 -35.2065 -35.2058 -35.1535 -35.1535
   -15.1970 -15.1970 -14.7650 -14.7645 -14.7218 -14.7217 -14.6663 -14.6650
   -14.6301 -14.6299 -14.6033 -14.6024 -14.3680 -14.3679 -13.9368 -13.9272
   -13.9023 -13.9023 -13.8838 -13.8664 -13.8308 -13.8265 -13.7793 -13.7704
   -13.7531 -13.7419 -13.7352 -13.7352 -13.7070 -13.7067 -13.7047 -13.6990
   -13.6872 -13.6872 -13.6581 -13.6581 -13.6529 -13.6528 -13.6375 -13.6332
   -13.6087 -13.6064 -13.5777 -13.5768 -13.5257 -13.5256 -13.4750 -13.4715
   -13.4642 -13.4613 -13.3827 -13.3820 -13.3594 -13.3582 -13.3497 -13.3491
   -13.3231 -13.3221 -13.3180 -13.3171 -13.3063 -13.3059 -13.2995 -13.2975
   -13.2815 -13.2813 -13.2748 -13.2746 -13.2538 -13.2536 -13.2453 -13.2447
   -13.2146 -13.2115 -13.1969 -13.1943 -13.1837 -13.1837 -13.1819 -13.1819
   -13.1225 -13.1224 -13.0969 -13.0967 -13.0919 -13.0918 -13.0767 -13.0765
   -12.9049 -12.9049 -12.7634 -12.7634 -12.7142 -12.7141 -12.7002 -12.7000
   -12.4203 -12.4203 -12.4194 -12.4194  -6.7323  -6.7321  -6.7003  -6.7002
    -6.6968  -6.6955  -6.6695  -6.6682  -6.6147  -6.6139  -6.5843  -6.5835
    -6.5705  -6.5688  -6.4254  -6.4175  -6.3881  -6.3759  -6.3594  -6.3553
    -6.3524  -6.3496  -6.3389  -6.3345  -6.2950  -6.2873  -6.2818  -6.2808
    -6.2780  -6.2720  -6.2699  -6.2618  -6.2583  -6.2571  -6.2525  -6.2510
    -6.2309  -6.2294  -6.2178  -6.2169  -6.2004  -6.1999  -6.1982  -6.1924
    -6.1869  -6.1867  -6.1440  -6.1434  -6.1369  -6.1362  -6.1294  -6.1294
    -6.1215  -6.1206  -5.9278  -5.9257  -5.9232  -5.9198  -5.9006  -5.8996
    -5.7214  -5.7207  -5.7171  -5.7170  -5.7103  -5.7091  -5.6883  -5.6865
    -5.5939  -5.5930  -5.5634  -5.5631  -5.5378  -5.5360  -5.4236  -5.4170
    -5.4042  -5.3941  -5.3045  -5.2959  -5.2346  -5.2218  -5.1234  -5.1227
    -5.1193  -5.1176  -5.1056  -5.0962  -5.0952  -5.0937  -5.0879  -5.0877
    -5.0785  -5.0782  -5.0731  -5.0718  -5.0668  -5.0568  -5.0557  -5.0528
    -5.0369  -5.0337  -5.0288  -5.0257  -4.9235  -4.9234  -4.9156  -4.9154
    -4.8562  -4.8560  -4.8444  -4.8429  -4.8314  -4.8275  -4.8214  -4.8194
    -4.7823  -4.7816  -4.7202  -4.7193  -4.6863  -4.6860  -4.6151  -4.6118
    -4.5974  -4.5938  -4.5472  -4.5471  -4.4739  -4.4713  -4.4622  -4.4615
    -4.4510  -4.4435  -4.4254  -4.4228  -4.4220  -4.4200  -4.4014  -4.3981
    -4.3921  -4.3875  -4.3754  -4.3736  -4.3687  -4.3649  -4.3480  -4.3472
    -4.2957  -4.2943  -4.2726  -4.2713  -4.2517  -4.2468  -4.2408  -4.2396
    -4.2272  -4.2220  -4.2220  -4.2155  -4.2084  -4.2051  -4.2008  -4.1976
    -4.1893  -4.1886  -4.1833  -4.1832  -4.1617  -4.1609  -4.1409  -4.1404
    -4.1002  -4.0995  -4.0798  -4.0789  -3.9753  -3.9582  -3.8757  -3.8611
    -3.8417  -3.8307  -3.8076  -3.8058  -3.7206  -3.7101  -3.6986  -3.6971
    -3.6864  -3.6819  -3.6746  -3.6683  -3.6680  -3.6499  -3.6367  -3.6195
    -3.5621  -3.5192  -3.4500  -3.4346  -3.4316  -3.4273  -3.3922  -3.3917
    -3.3795  -3.3673  -3.3634  -3.3513  -3.3054  -3.3053  -3.2941  -3.2929
    -3.2745  -3.2697  -3.2578  -3.2558  -3.1864  -3.1837  -3.1537  -3.1447
    -3.1381  -3.1291  -3.0988  -3.0889  -3.0860  -3.0853  -3.0746  -3.0738
    -3.0602  -3.0553  -3.0430  -3.0428  -3.0277  -3.0268  -3.0170  -3.0168
    -2.9896  -2.9895  -2.9487  -2.9477  -2.9291  -2.9269  -2.9180  -2.9150
    -2.8980  -2.8942  -2.8802  -2.8790  -2.8506  -2.8500  -2.7954  -2.7954
    -2.7658  -2.7648  -2.7457  -2.7445  -2.7214  -2.7202  -2.6435  -2.6423
    -2.4291  -2.4179  -2.4136  -2.4022  -2.3684  -2.3546  -2.3314  -2.3169
    -2.3130  -2.3101  -2.3082  -2.3005  -2.2898  -2.2859  -2.2679  -2.2630
    -2.2546  -2.2518  -2.2423  -2.2409  -2.2213  -2.2209  -2.2093  -2.2069
    -2.1695  -2.1638  -2.1618  -2.1565  -2.1514  -2.1480  -2.1331  -2.1114
    -2.1039  -2.0946  -1.9944  -1.9815  -1.9803  -1.9662  -1.9603  -1.9564
    -1.9428  -1.9321  -1.9227  -1.9069  -1.8704  -1.8671  -1.8393  -1.8380
    -1.8052  -1.8031  -1.7858  -1.7796  -1.7623  -1.7618  -1.7062  -1.7042
    -1.6821  -1.6749  -1.6317  -1.6276  -1.6235  -1.6014  -1.5818  -1.5723
    -1.5427  -1.5290  -1.5073  -1.4876  -1.4720  -1.4649  -1.4484  -1.4475
    -1.4117  -1.4088  -1.3135  -1.3108  -1.2677  -1.2645  -1.1741  -1.1739
    -0.8188  -0.8184  -0.8166  -0.8162  -0.4979  -0.4972  -0.4595  -0.4586
    -0.1002  -0.1001   0.8139   0.8196   0.8414   0.8478   0.8644   0.8647
     0.8840   0.8879   0.8961   0.9034   0.9125   0.9342   0.9427   0.9473
     0.9545   0.9587   0.9696   0.9763   0.9769   0.9893   1.0043   1.0116
     1.0215   1.0240   1.0442   1.0442   1.0637   1.0642   1.0710   1.0727
     1.0840   1.0849   1.0890   1.0901   1.1250   1.1259   1.1390   1.1426
     1.1569   1.1600   1.1640   1.1643   1.2262   1.2267   1.2331   1.2338
     1.2693   1.2701   1.3561   1.3572   1.3814   1.3818   1.3854   1.3881
     1.3963   1.3981   1.4020   1.4026   1.4083   1.4131   1.4155   1.4190
     1.4268   1.4349   1.4500   1.4513   1.4532   1.4545   1.4639   1.4679
     1.4773   1.4793   1.4866   1.4912   1.5166   1.5177   1.5337   1.5397
     1.5522   1.5532   1.5542   1.5578   1.5768   1.5924   1.6032   1.6120
     1.6285   1.6402   1.6523   1.6583   1.6861   1.6981   1.7332   1.7345
     1.7565   1.7588   1.8150   1.8166   1.8287   1.8297   1.8453   1.8539
     1.8876   1.8934   1.8999   1.9048   1.9209   1.9251   1.9445   1.9591
     1.9905   1.9912   2.0194   2.0271   2.0334   2.0346   2.0493   2.0573
     2.0797   2.1092   2.1605   2.1792   2.1944   2.2031   2.2370   2.2375
     2.2749   2.2775   2.3010   2.3035   2.3197   2.3197   2.3708   2.3713
     2.4279   2.4293   2.4767   2.4778   2.5423   2.5472   2.5620   2.5631
     2.5930   2.5962   2.6044   2.6065   2.6133   2.6196   2.6504   2.6562
     2.6695   2.6782   2.7283   2.7314   2.9113   2.9125   2.9319   2.9334
     3.1229   3.1238   3.1420   3.1450   3.1477   3.1515   3.1885   3.1886
     3.2091   3.2115   3.2333   3.2367   3.2923   3.2955   3.3069   3.3125
     3.3371   3.3394   3.3555   3.3598   3.3943   3.4018   3.4211   3.4339
     3.4379   3.4471   3.5192   3.5267   3.5388   3.5453   3.5619   3.5857
     4.3531   4.3531   4.5854   4.5854   5.0422   5.0425   5.0688   5.0692
     5.1429   5.1430   5.1637   5.1645   5.1722   5.1729   5.2051   5.2051
     5.2452   5.2453   5.2595   5.2601   5.2888   5.2891   5.3366   5.3367
     5.3501   5.3502   5.4319   5.4319   5.4883   5.4884   5.5382   5.5382
     5.5856   5.6129   5.6306   5.6384   5.6458   5.6500   5.6577   5.6758
     5.7091   5.7266   5.7526   5.7529   5.7863   5.7864   5.7978   5.7989
     5.8495   5.8525   5.9297   5.9323   5.9344   5.9405   5.9493   5.9496
     6.0122   6.0171   6.0536   6.0543   6.0586   6.0591   6.1101   6.1109
     6.1585   6.1587   6.1746   6.1749   6.3099   6.3225   6.3879   6.3930
     6.3930   6.3965   6.4032   6.4109   6.5025   6.5036   6.5392   6.5449
     6.5601   6.5649   6.5963   6.5973   6.6003   6.6014   6.6080   6.6316
     6.7540   6.7545   6.7596   6.7597   6.7682   6.7687   6.7743   6.7762
     6.7837   6.7839   6.7974   6.7975   6.8257   6.8276   6.8435   6.8447
     6.8508   6.8525   6.8817   6.8840   6.8984   6.8988   6.9018   6.9041
     6.9281   6.9309   6.9459   6.9490   6.9615   6.9616   6.9956   6.9956
     7.0243   7.0245   7.0299   7.0300   7.0669   7.0680   7.1176   7.1176
     7.1242   7.1242   7.1852   7.1875   7.2053   7.2054   7.2439   7.2440
     7.2567   7.2569   7.2870   7.2987   7.3081   7.3127   7.3480   7.3496
     7.3588   7.3715   7.3727   7.3825   7.3941   7.3958   7.4047   7.4106
     7.4752   7.4766   7.4937   7.5064   7.5236   7.5267   7.5404   7.5421
     7.5462   7.5502   7.5504   7.5664   7.5806   7.6043   7.6043   7.6088

          k = 0.0256 0.0444 0.0000 ( 81891 PWs)   bands (ev):

   -62.1144 -62.1144 -62.1097 -62.1097 -62.1092 -62.1092 -62.0985 -62.0985
   -62.0981 -62.0981 -62.0932 -62.0932 -61.9926 -61.9926 -61.9891 -61.9891
   -61.9878 -61.9878 -61.9813 -61.9813 -61.9700 -61.9700 -61.9694 -61.9694
   -61.9623 -61.9623 -61.9599 -61.9599 -61.9585 -61.9585 -61.9579 -61.9579
   -61.9528 -61.9528 -61.9526 -61.9526 -61.9384 -61.9384 -61.9373 -61.9373
   -61.9369 -61.9369 -61.9318 -61.9318 -61.9305 -61.9305 -61.9302 -61.9302
   -37.9673 -37.9673 -37.9548 -37.9548 -37.9545 -37.9545 -37.9302 -37.9302
   -37.9287 -37.9287 -37.9175 -37.9175 -37.8483 -37.8483 -37.8433 -37.8433
   -37.8419 -37.8419 -37.8333 -37.8333 -37.8257 -37.8257 -37.8214 -37.8214
   -37.8172 -37.8172 -37.8155 -37.8155 -37.8120 -37.8119 -37.8093 -37.8093
   -37.8020 -37.8020 -37.7919 -37.7918 -37.7756 -37.7756 -37.7741 -37.7741
   -37.7590 -37.7590 -37.7477 -37.7475 -37.7471 -37.7469 -37.7239 -37.7239
   -35.5503 -35.5503 -35.5486 -35.5486 -35.5466 -35.5466 -35.5075 -35.5074
   -35.5052 -35.5051 -35.4910 -35.4910 -35.4656 -35.4655 -35.4639 -35.4638
   -35.4545 -35.4545 -35.4351 -35.4351 -35.4316 -35.4316 -35.4301 -35.4301
   -35.4160 -35.4160 -35.4132 -35.4132 -35.4104 -35.4104 -35.4055 -35.4055
   -35.3952 -35.3952 -35.3863 -35.3862 -35.3837 -35.3837 -35.3716 -35.3716
   -35.3685 -35.3685 -35.3645 -35.3645 -35.3563 -35.3562 -35.3350 -35.3350
   -35.3226 -35.3226 -35.3218 -35.3217 -35.3209 -35.3207 -35.3102 -35.3101
   -35.2983 -35.2983 -35.2961 -35.2960 -35.2933 -35.2932 -35.2909 -35.2908
   -35.2834 -35.2833 -35.2788 -35.2787 -35.2777 -35.2777 -35.2711 -35.2710
   -35.2706 -35.2706 -35.2617 -35.2617 -35.2577 -35.2577 -35.2570 -35.2570
   -35.2549 -35.2548 -35.2532 -35.2532 -35.2376 -35.2375 -35.2338 -35.2338
   -35.2195 -35.2194 -35.2136 -35.2134 -35.2078 -35.2077 -35.1530 -35.1530
   -15.2002 -15.2002 -14.7292 -14.7289 -14.7021 -14.7021 -14.6729 -14.6723
   -14.6454 -14.6454 -14.6390 -14.6386 -14.3783 -14.3783 -13.9036 -13.9036
   -13.8942 -13.8885 -13.8651 -13.8537 -13.8287 -13.8237 -13.7858 -13.7822
   -13.7672 -13.7604 -13.7230 -13.7230 -13.7201 -13.7177 -13.7023 -13.7023
   -13.6948 -13.6948 -13.6615 -13.6615 -13.6605 -13.6605 -13.6231 -13.6221
   -13.6039 -13.6027 -13.5890 -13.5888 -13.5287 -13.5287 -13.4799 -13.4794
   -13.4685 -13.4681 -13.3650 -13.3646 -13.3516 -13.3506 -13.3417 -13.3416
   -13.3309 -13.3307 -13.3267 -13.3260 -13.3145 -13.3142 -13.2995 -13.2993
   -13.2781 -13.2780 -13.2749 -13.2747 -13.2594 -13.2594 -13.2436 -13.2435
   -13.2076 -13.2069 -13.1974 -13.1968 -13.1835 -13.1835 -13.1819 -13.1819
   -13.1203 -13.1203 -13.0952 -13.0951 -13.0926 -13.0926 -13.0769 -13.0769
   -12.9053 -12.9053 -12.7635 -12.7635 -12.7138 -12.7138 -12.6997 -12.6996
   -12.4202 -12.4202 -12.4193 -12.4193  -6.7240  -6.7240  -6.6925  -6.6925
    -6.6783  -6.6773  -6.6718  -6.6708  -6.6152  -6.6145  -6.6081  -6.6068
    -6.5929  -6.5923  -6.3965  -6.3935  -6.3690  -6.3643  -6.3474  -6.3467
    -6.3438  -6.3431  -6.3248  -6.3238  -6.3030  -6.2998  -6.2932  -6.2909
    -6.2822  -6.2785  -6.2713  -6.2699  -6.2573  -6.2564  -6.2433  -6.2417
    -6.2391  -6.2388  -6.2216  -6.2205  -6.2067  -6.2060  -6.2038  -6.2033
    -6.1941  -6.1936  -6.1529  -6.1528  -6.1459  -6.1458  -6.1297  -6.1294
    -6.1271  -6.1267  -5.9277  -5.9271  -5.9236  -5.9227  -5.9079  -5.9076
    -5.7220  -5.7220  -5.6960  -5.6959  -5.6906  -5.6896  -5.6849  -5.6838
    -5.5898  -5.5898  -5.5822  -5.5820  -5.5520  -5.5517  -5.3793  -5.3755
    -5.3577  -5.3529  -5.3045  -5.3000  -5.2680  -5.2623  -5.1214  -5.1179
    -5.1164  -5.1162  -5.1140  -5.1131  -5.1045  -5.1002  -5.0957  -5.0957
    -5.0923  -5.0922  -5.0867  -5.0864  -5.0712  -5.0710  -5.0575  -5.0573
    -5.0410  -5.0405  -5.0320  -5.0316  -4.9192  -4.9192  -4.9116  -4.9116
    -4.8463  -4.8462  -4.8383  -4.8376  -4.8275  -4.8269  -4.8104  -4.8103
    -4.7712  -4.7710  -4.7135  -4.7132  -4.7017  -4.7015  -4.6160  -4.6153
    -4.6045  -4.6037  -4.5548  -4.5548  -4.4724  -4.4723  -4.4628  -4.4628
    -4.4372  -4.4363  -4.4232  -4.4219  -4.4155  -4.4130  -4.4044  -4.4041
    -4.3844  -4.3841  -4.3702  -4.3699  -4.3579  -4.3578  -4.3258  -4.3255
    -4.2925  -4.2909  -4.2708  -4.2703  -4.2524  -4.2512  -4.2438  -4.2408
    -4.2295  -4.2240  -4.2171  -4.2155  -4.2078  -4.2078  -4.2035  -4.2021
    -4.2016  -4.1973  -4.1936  -4.1923  -4.1760  -4.1744  -4.1723  -4.1717
    -4.1037  -4.1037  -4.0685  -4.0684  -3.9012  -3.8890  -3.8345  -3.8162
    -3.8128  -3.8055  -3.8005  -3.7864  -3.7363  -3.7142  -3.7112  -3.7000
    -3.6976  -3.6900  -3.6888  -3.6872  -3.6744  -3.6734  -3.6513  -3.6459
    -3.6298  -3.6105  -3.4078  -3.3991  -3.3944  -3.3942  -3.3802  -3.3789
    -3.3725  -3.3618  -3.3579  -3.3575  -3.3275  -3.3270  -3.3183  -3.3150
    -3.2647  -3.2612  -3.2465  -3.2446  -3.1938  -3.1934  -3.1484  -3.1468
    -3.1350  -3.1349  -3.1188  -3.1138  -3.0938  -3.0913  -3.0741  -3.0722
    -3.0710  -3.0696  -3.0402  -3.0399  -3.0354  -3.0350  -3.0253  -3.0253
    -2.9976  -2.9976  -2.9276  -2.9266  -2.9214  -2.9199  -2.9141  -2.9132
    -2.8952  -2.8929  -2.8911  -2.8894  -2.8494  -2.8493  -2.8009  -2.8009
    -2.7693  -2.7692  -2.7496  -2.7495  -2.7291  -2.7289  -2.6677  -2.6675
    -2.4014  -2.3962  -2.3934  -2.3881  -2.3473  -2.3381  -2.3337  -2.3245
    -2.3102  -2.3057  -2.2934  -2.2904  -2.2849  -2.2844  -2.2739  -2.2727
    -2.2378  -2.2371  -2.2277  -2.2270  -2.2184  -2.2183  -2.2124  -2.2120
    -2.1704  -2.1702  -2.1668  -2.1664  -2.1406  -2.1370  -2.1148  -2.1099
    -2.1033  -2.1016  -1.9831  -1.9795  -1.9686  -1.9659  -1.9633  -1.9621
    -1.9458  -1.9440  -1.9357  -1.9310  -1.8739  -1.8732  -1.8414  -1.8412
    -1.8136  -1.8131  -1.7946  -1.7935  -1.7606  -1.7604  -1.7019  -1.7015
    -1.6675  -1.6664  -1.6282  -1.6272  -1.5976  -1.5907  -1.5731  -1.5695
    -1.5500  -1.5447  -1.5207  -1.5156  -1.4780  -1.4769  -1.4444  -1.4441
    -1.4109  -1.4105  -1.3033  -1.3029  -1.2691  -1.2686  -1.1733  -1.1733
    -0.8191  -0.8189  -0.8175  -0.8173  -0.4979  -0.4978  -0.4595  -0.4594
    -0.1004  -0.1003   0.8360   0.8369   0.8495   0.8496   0.8732   0.8746
     0.8786   0.8801   0.8966   0.9051   0.9141   0.9257   0.9429   0.9435
     0.9463   0.9501   0.9568   0.9589   0.9765   0.9818   0.9959   0.9991
     1.0147   1.0149   1.0434   1.0434   1.0636   1.0637   1.0729   1.0732
     1.0853   1.0855   1.0906   1.0908   1.1245   1.1246   1.1402   1.1413
     1.1512   1.1521   1.1557   1.1557   1.2260   1.2261   1.2335   1.2337
     1.2712   1.2713   1.3720   1.3722   1.3897   1.3907   1.3926   1.3942
     1.4027   1.4033   1.4063   1.4072   1.4123   1.4137   1.4218   1.4233
     1.4287   1.4328   1.4387   1.4394   1.4475   1.4524   1.4528   1.4556
     1.4739   1.4740   1.4829   1.4833   1.5137   1.5138   1.5377   1.5379
     1.5592   1.5620   1.5674   1.5679   1.5870   1.5940   1.6123   1.6125
     1.6181   1.6215   1.6521   1.6548   1.6737   1.6768   1.7313   1.7314
     1.7542   1.7545   1.8190   1.8193   1.8426   1.8428   1.8479   1.8498
     1.8901   1.8909   1.9001   1.9010   1.9402   1.9408   1.9532   1.9581
     1.9944   1.9971   2.0261   2.0264   2.0326   2.0327   2.0477   2.0488
     2.1051   2.1123   2.1519   2.1580   2.2157   2.2162   2.2474   2.2488
     2.2641   2.2651   2.2873   2.2880   2.3396   2.3418   2.3581   2.3603
     2.4144   2.4147   2.4840   2.4842   2.5596   2.5623   2.5693   2.5700
     2.5760   2.5769   2.6089   2.6095   2.6150   2.6175   2.6426   2.6466
     2.6596   2.6630   2.7217   2.7223   2.9128   2.9130   2.9338   2.9340
     3.1246   3.1247   3.1477   3.1485   3.1511   3.1521   3.2010   3.2011
     3.2156   3.2164   3.2302   3.2310   3.3051   3.3064   3.3180   3.3204
     3.3352   3.3360   3.3566   3.3569   3.4062   3.4086   3.4354   3.4388
     3.4469   3.4494   3.5203   3.5231   3.5246   3.5323   3.5505   3.5577
     4.3462   4.3462   4.5808   4.5808   5.0913   5.0914   5.1158   5.1160
     5.1335   5.1335   5.1580   5.1583   5.1678   5.1682   5.2051   5.2054
     5.2340   5.2341   5.2556   5.2556   5.2880   5.2880   5.3299   5.3299
     5.3466   5.3467   5.3763   5.3763   5.4371   5.4371   5.5291   5.5291
     5.6266   5.6433   5.6548   5.6624   5.6795   5.6827   5.6857   5.6999
     5.7142   5.7147   5.7272   5.7480   5.7639   5.7697   5.8074   5.8090
     5.8393   5.8395   5.9094   5.9173   5.9331   5.9395   5.9857   5.9859
     6.0008   6.0009   6.0474   6.0477   6.0524   6.0527   6.0605   6.0608
     6.0994   6.0995   6.1157   6.1158   6.3886   6.3886   6.3909   6.4054
     6.4280   6.4348   6.4443   6.4502   6.5054   6.5107   6.5246   6.5279
     6.5458   6.5651   6.5933   6.5943   6.6390   6.6400   6.6456   6.6466
     6.7273   6.7280   6.7347   6.7357   6.7686   6.7686   6.7868   6.7886
     6.7912   6.7913   6.7993   6.8009   6.8090   6.8110   6.8215   6.8271
     6.8368   6.8402   6.8689   6.8697   6.8793   6.8799   6.8860   6.8882
     6.8931   6.8961   6.9075   6.9101   6.9179   6.9186   7.0428   7.0429
     7.0707   7.0707   7.1016   7.1026   7.1117   7.1117   7.1179   7.1207
     7.1216   7.1223   7.1544   7.1544   7.1747   7.1771   7.1939   7.1940
     7.2258   7.2276   7.2613   7.2624   7.3618   7.3727   7.3893   7.3958
     7.3960   7.4014   7.4112   7.4144   7.4241   7.4289   7.4346   7.4459
     7.4642   7.4643   7.4977   7.5017   7.5302   7.5403   7.5457   7.5565
     7.5642   7.5650   7.5664   7.5701   7.5705   7.5736   7.5892   7.5969

     Writing output data file unfold.save/
 
     init_run     :      7.36s CPU     10.21s WALL (       1 calls)
     electrons    :  14381.26s CPU  14721.85s WALL (       1 calls)

     Called by init_run:
     wfcinit      :      0.00s CPU      0.01s WALL (       1 calls)
     potinit      :      2.88s CPU      3.02s WALL (       1 calls)
     hinit0       :      4.26s CPU      6.96s WALL (       1 calls)

     Called by electrons:
     c_bands      :  14381.22s CPU  14721.81s WALL (       1 calls)
     v_of_rho     :      0.03s CPU      0.04s WALL (       1 calls)

     Called by c_bands:
     init_us_2    :      0.47s CPU      0.48s WALL (      56 calls)
     cegterg      :  14073.90s CPU  14405.08s WALL (     168 calls)

     Called by sum_band:

     Called by *egterg:
     h_psi        :   4695.30s CPU   4814.63s WALL (    2595 calls)
     g_psi        :     12.11s CPU     12.19s WALL (    2371 calls)
     cdiaghg      :   4756.77s CPU   4892.73s WALL (    2427 calls)

     Called by h_psi:
     h_psi:pot    :   4679.86s CPU   4796.16s WALL (    2595 calls)
     h_psi:calbec :    756.76s CPU    774.03s WALL (    2595 calls)
     vloc_psi     :   3168.88s CPU   3249.46s WALL (    2595 calls)
     add_vuspsi   :    754.19s CPU    772.65s WALL (    2595 calls)

     General routines
     calbec       :    756.74s CPU    774.01s WALL (    2595 calls)
     fft          :      4.11s CPU      6.81s WALL (      13 calls)
     fftw         :   3069.24s CPU   3147.61s WALL ( 5026292 calls)
 
     Parallel routines
     fft_scatt_xy :     85.40s CPU     87.76s WALL ( 5026305 calls)
     fft_scatt_yz :   2497.54s CPU   2566.18s WALL ( 5026305 calls)
 
     PWSCF        :      4h 5m CPU      4h12m WALL

 
   This run was terminated on:   2:52: 3  10Jun2021            

=------------------------------------------------------------------------------=
   JOB DONE.
=------------------------------------------------------------------------------=
