
     Program PWSCF v.6.4.1 starts on  9Jun2021 at 14:44:39 

     This program is part of the open-source Quantum ESPRESSO suite
     for quantum simulation of materials; please cite
         "P. Giannozzi et al., J. Phys.:Condens. Matter 21 395502 (2009);
         "P. Giannozzi et al., J. Phys.:Condens. Matter 29 465901 (2017);
          URL http://www.quantum-espresso.org", 
     in publications or presentations arising from this work. More details at
     http://www.quantum-espresso.org/quote

     Parallel version (MPI & OpenMP), running on     160 processor cores
     Number of MPI processes:               160
     Threads/MPI process:                     1

     MPI processes distributed on     5 nodes
     R & G space division:  proc/nbgrp/npool/nimage =     160
     Waiting for input...
     Reading input from standard input

     Current dimensions of program PWSCF are:
     Max number of different atomic species (ntypx) = 10
     Max number of k-points (npk) =  40000
     Max angular momentum in pseudopotentials (lmaxx) =  3

     Atomic positions and unit cell read from directory:
     ./unfold.save/
 

     Subspace diagonalization in iterative solution of the eigenvalue problem:
     one sub-group per band group will be used
     scalapack distributed-memory algorithm (size of sub-group:  8*  8 procs)

 
     Parallelization info
     --------------------
     sticks:   dense  smooth     PW     G-vecs:    dense   smooth      PW
     Min          46      46     12                 4094     4094     544
     Max          47      47     13                 4105     4105     551
     Sum        7471    7471   1945               656009   656009   87643
 


     bravais-lattice index     =            0
     lattice parameter (alat)  =      30.0466  a.u.
     unit-cell volume          =   29549.5915 (a.u.)^3
     number of atoms/cell      =           74
     number of atomic types    =            2
     number of electrons       =       636.00
     number of Kohn-Sham states=          636
     kinetic-energy cutoff     =      30.0000  Ry
     charge density cutoff     =     120.0000  Ry
     Exchange-correlation      = PBE ( 1  4  3  4 0 0)
     Non magnetic calculation with spin-orbit


     celldm(1)=  30.046646  celldm(2)=   0.000000  celldm(3)=   0.000000
     celldm(4)=   0.000000  celldm(5)=   0.000000  celldm(6)=   0.000000

     crystal axes: (cart. coord. in units of alat)
               a(1) = (   1.000000   0.000000   0.000000 )  
               a(2) = (  -0.500000   0.866025   0.000000 )  
               a(3) = (   0.000000   0.000000   1.257862 )  

     reciprocal axes: (cart. coord. in units 2 pi/alat)
               b(1) = (  1.000000  0.577350  0.000000 )  
               b(2) = (  0.000000  1.154701  0.000000 )  
               b(3) = (  0.000000  0.000000  0.795000 )  


     PseudoPot. # 1 for S  read from file:
     /ptmp/alaa/qe/2/pseudo/S_ONCV_PBE_FR-1.1.upf
     MD5 check sum: 520a35214b8921ef5a3e305e16abb38a
     Pseudo is Norm-conserving, Zval =  6.0
     Generated using ONCVPSP code by D. R. Hamann
     Using radial grid of  602 points,  6 beta functions with: 
                l(1) =   0
                l(2) =   0
                l(3) =   1
                l(4) =   1
                l(5) =   1
                l(6) =   1

     PseudoPot. # 2 for Mo read from file:
     /ptmp/alaa/qe/2/pseudo/Mo_ONCV_PBE_FR-1.0.upf
     MD5 check sum: 05288ac22f87858946b79311c37e479e
     Pseudo is Norm-conserving, Zval = 14.0
     Generated using ONCVPSP code by D. R. Hamann
     Using radial grid of  602 points, 10 beta functions with: 
                l(1) =   0
                l(2) =   0
                l(3) =   1
                l(4) =   1
                l(5) =   1
                l(6) =   1
                l(7) =   2
                l(8) =   2
                l(9) =   2
               l(10) =   2

     atomic species   valence    mass     pseudopotential
        S              6.00    16.00000     S ( 1.00)
        Mo            14.00    42.00000     Mo( 1.00)

     No symmetry found



   Cartesian axes

     site n.     atom                  positions (alat units)
         1           Mo  tau(   1) = (   0.0994216   0.0570139   0.1932390  )
         2           S   tau(   2) = (  -0.0000466   0.1157875   0.2914067  )
         3           S   tau(   3) = (  -0.0000466   0.1157875   0.0950713  )
         4           Mo  tau(   4) = (   0.0007795   0.2314231   0.1932390  )
         5           S   tau(   5) = (  -0.0997734   0.2885196   0.2914068  )
         6           S   tau(   6) = (  -0.0997734   0.2885196   0.0950712  )
         7           Mo  tau(   7) = (  -0.1009345   0.4040442   0.1932390  )
         8           S   tau(   8) = (  -0.1999989   0.4621387   0.2916597  )
         9           S   tau(   9) = (  -0.1999989   0.4621387   0.0948183  )
        10           Mo  tau(  10) = (  -0.1999983   0.5775899   0.1932390  )
        11           S   tau(  11) = (  -0.2995389   0.6353687   0.2916792  )
        12           S   tau(  12) = (  -0.2995389   0.6353687   0.0947988  )
        13           Mo  tau(  13) = (  -0.2998071   0.7504670   0.1932390  )
        14           S   tau(  14) = (  -0.3997927   0.8081938   0.2916605  )
        15           S   tau(  15) = (  -0.3997927   0.8081938   0.0948175  )
        16           Mo  tau(  16) = (   0.3000054   0.0564610   0.1932390  )
        17           S   tau(  17) = (   0.1996368   0.1139586   0.2910251  )
        18           S   tau(  18) = (   0.1996368   0.1139586   0.0954529  )
        19           Mo  tau(  19) = (   0.2023588   0.2301473   0.1932390  )
        20           S   tau(  20) = (   0.1016275   0.2896440   0.2908865  )
        21           S   tau(  21) = (   0.1016275   0.2896440   0.0955915  )
        22           Mo  tau(  22) = (   0.1004721   0.4066269   0.1932390  )
        23           S   tau(  23) = (  -0.0015090   0.4623545   0.2910236  )
        24           S   tau(  24) = (  -0.0015090   0.4623545   0.0954544  )
        25           Mo  tau(  25) = (  -0.0011210   0.5780228   0.1932390  )
        26           S   tau(  26) = (  -0.1004550   0.6353715   0.2916785  )
        27           S   tau(  27) = (  -0.1004550   0.6353715   0.0947995  )
        28           Mo  tau(  28) = (  -0.1001865   0.7504690   0.1932390  )
        29           S   tau(  29) = (  -0.1999948   0.8077828   0.2916797  )
        30           S   tau(  30) = (  -0.1999948   0.8077828   0.0947983  )
        31           Mo  tau(  31) = (   0.5005806   0.0570135   0.1932390  )
        32           S   tau(  32) = (   0.4003742   0.1139620   0.2910234  )
        33           S   tau(  33) = (   0.4003742   0.1139620   0.0954545  )
        34           Mo  tau(  34) = (   0.3976502   0.2301506   0.1932390  )
        35           S   tau(  35) = (   0.3000087   0.2840909   0.2920303  )
        36           S   tau(  36) = (   0.3000087   0.2840909   0.0944477  )
        37           S   tau(  37) = (   0.1960073   0.4642128   0.2920303  )
        38           S   tau(  38) = (   0.1960073   0.4642128   0.0944477  )
        39           Mo  tau(  39) = (   0.1981079   0.5757439   0.1932390  )
        40           S   tau(  40) = (   0.0988549   0.6361938   0.2910249  )
        41           S   tau(  41) = (   0.0988549   0.6361938   0.0954531  )
        42           Mo  tau(  42) = (   0.0996411   0.7514515   0.1932390  )
        43           S   tau(  43) = (  -0.0002025   0.8081951   0.2916601  )
        44           S   tau(  44) = (  -0.0002025   0.8081951   0.0948179  )
        45           Mo  tau(  45) = (   0.7001588   0.0578564   0.1932390  )
        46           S   tau(  46) = (   0.6000437   0.1157863   0.2914066  )
        47           S   tau(  47) = (   0.6000437   0.1157863   0.0950714  )
        48           Mo  tau(  48) = (   0.5992125   0.2314191   0.1932390  )
        49           S   tau(  49) = (   0.4983725   0.2896376   0.2908875  )
        50           S   tau(  50) = (   0.4983725   0.2896376   0.0955905  )
        51           Mo  tau(  51) = (   0.4995236   0.4066111   0.1932390  )
        52           S   tau(  52) = (   0.4039913   0.4642019   0.2920315  )
        53           S   tau(  53) = (   0.4039913   0.4642019   0.0944465  )
        54           Mo  tau(  54) = (   0.4018835   0.5757417   0.1932390  )
        55           S   tau(  55) = (   0.2999945   0.6332315   0.2908879  )
        56           S   tau(  56) = (   0.2999945   0.6332315   0.0955901  )
        57           Mo  tau(  57) = (   0.2999924   0.7496751   0.1932390  )
        58           S   tau(  58) = (   0.2002691   0.8082090   0.2914067  )
        59           S   tau(  59) = (   0.2002691   0.8082090   0.0950713  )
        60           Mo  tau(  60) = (   0.8998302   0.0578575   0.1932390  )
        61           S   tau(  61) = (   0.7999957   0.1154975   0.2915048  )
        62           S   tau(  62) = (   0.7999957   0.1154975   0.0949732  )
        63           Mo  tau(  63) = (   0.7999955   0.2307790   0.1932390  )
        64           S   tau(  64) = (   0.6997688   0.2885159   0.2914066  )
        65           S   tau(  65) = (   0.6997688   0.2885159   0.0950714  )
        66           Mo  tau(  66) = (   0.7009337   0.4040391   0.1932390  )
        67           S   tau(  67) = (   0.6015095   0.4623452   0.2910229  )
        68           S   tau(  68) = (   0.6015095   0.4623452   0.0954551  )
        69           Mo  tau(  69) = (   0.6011227   0.5780178   0.1932390  )
        70           S   tau(  70) = (   0.5011457   0.6361910   0.2910260  )
        71           S   tau(  71) = (   0.5011457   0.6361910   0.0954520  )
        72           Mo  tau(  72) = (   0.5003552   0.7514512   0.1932390  )
        73           S   tau(  73) = (   0.3997228   0.8082087   0.2914066  )
        74           S   tau(  74) = (   0.3997228   0.8082087   0.0950714  )

     number of k points=    10
                       cart. coord. in units 2pi/alat
        k(    1) = (   0.0000000   0.0000000   0.0000000), wk =   0.0625000
        k(    2) = (   0.0000000   0.2886751   0.0000000), wk =   0.1250000
        k(    3) = (   0.0000000  -0.5773503   0.0000000), wk =   0.0625000
        k(    4) = (   0.2500000   0.4330127   0.0000000), wk =   0.1250000
        k(    5) = (  -0.2500000   0.1443376   0.0000000), wk =   0.1250000
        k(    6) = (   0.2500000   0.1443376   0.0000000), wk =   0.1250000
        k(    7) = (   0.5000000  -0.2886751   0.0000000), wk =   0.0625000
        k(    8) = (  -0.5000000  -0.2886751   0.0000000), wk =   0.0625000
        k(    9) = (  -0.2500000   0.4330127   0.0000000), wk =   0.1250000
        k(   10) = (   0.5000000   0.0000000   0.0000000), wk =   0.1250000

     Dense  grid:   656009 G-vectors     FFT dimensions: ( 108, 108, 135)

     Estimated max dynamical RAM per process >     259.81 MB

     Estimated total dynamical RAM >      40.60 GB

     The potential is recalculated from file :
     ./unfold.save/charge-density

     Starting wfcs are random

     Band Structure Calculation
     Davidson diagonalization with overlap

     ethr =  1.57E-10,  avg # of iterations = 35.7

     total cpu time spent up to now is     1272.5 secs

     End of band structure calculation

          k = 0.0000 0.0000 0.0000 ( 81851 PWs)   bands (ev):

   -62.1144 -62.1144 -62.1097 -62.1097 -62.1092 -62.1092 -62.0985 -62.0985
   -62.0981 -62.0981 -62.0932 -62.0932 -61.9926 -61.9926 -61.9890 -61.9890
   -61.9878 -61.9878 -61.9813 -61.9813 -61.9700 -61.9700 -61.9694 -61.9694
   -61.9623 -61.9623 -61.9599 -61.9599 -61.9585 -61.9585 -61.9579 -61.9579
   -61.9528 -61.9528 -61.9526 -61.9526 -61.9384 -61.9384 -61.9373 -61.9373
   -61.9369 -61.9369 -61.9318 -61.9318 -61.9305 -61.9305 -61.9302 -61.9302
   -37.9673 -37.9673 -37.9548 -37.9548 -37.9544 -37.9544 -37.9302 -37.9302
   -37.9287 -37.9287 -37.9175 -37.9175 -37.8483 -37.8483 -37.8433 -37.8433
   -37.8419 -37.8419 -37.8333 -37.8333 -37.8257 -37.8257 -37.8213 -37.8213
   -37.8168 -37.8168 -37.8156 -37.8156 -37.8119 -37.8119 -37.8095 -37.8095
   -37.8022 -37.8022 -37.7919 -37.7919 -37.7755 -37.7755 -37.7740 -37.7740
   -37.7587 -37.7587 -37.7477 -37.7477 -37.7473 -37.7473 -37.7238 -37.7238
   -35.5503 -35.5503 -35.5486 -35.5486 -35.5466 -35.5466 -35.5074 -35.5074
   -35.5052 -35.5052 -35.4911 -35.4911 -35.4655 -35.4655 -35.4638 -35.4638
   -35.4545 -35.4545 -35.4350 -35.4350 -35.4317 -35.4317 -35.4303 -35.4303
   -35.4161 -35.4161 -35.4131 -35.4131 -35.4103 -35.4103 -35.4054 -35.4054
   -35.3954 -35.3954 -35.3863 -35.3863 -35.3836 -35.3836 -35.3716 -35.3716
   -35.3683 -35.3683 -35.3645 -35.3645 -35.3566 -35.3566 -35.3346 -35.3346
   -35.3226 -35.3226 -35.3217 -35.3217 -35.3208 -35.3208 -35.3103 -35.3103
   -35.2981 -35.2981 -35.2950 -35.2950 -35.2941 -35.2941 -35.2912 -35.2912
   -35.2833 -35.2833 -35.2785 -35.2785 -35.2781 -35.2781 -35.2710 -35.2710
   -35.2707 -35.2707 -35.2617 -35.2617 -35.2575 -35.2575 -35.2569 -35.2569
   -35.2551 -35.2551 -35.2532 -35.2532 -35.2374 -35.2374 -35.2337 -35.2337
   -35.2183 -35.2183 -35.2145 -35.2145 -35.2083 -35.2083 -35.1529 -35.1529
   -15.2011 -15.2011 -14.6966 -14.6966 -14.6923 -14.6923 -14.6920 -14.6920
   -14.6545 -14.6545 -14.6536 -14.6536 -14.3818 -14.3818 -13.9042 -13.9042
   -13.8617 -13.8617 -13.8549 -13.8549 -13.8436 -13.8436 -13.7818 -13.7818
   -13.7669 -13.7669 -13.7315 -13.7315 -13.7154 -13.7154 -13.7007 -13.7007
   -13.7004 -13.7004 -13.6630 -13.6630 -13.6627 -13.6627 -13.6072 -13.6072
   -13.6018 -13.6018 -13.6017 -13.6017 -13.5297 -13.5297 -13.4819 -13.4819
   -13.4702 -13.4702 -13.3506 -13.3506 -13.3475 -13.3475 -13.3466 -13.3466
   -13.3310 -13.3310 -13.3300 -13.3300 -13.3211 -13.3211 -13.2996 -13.2996
   -13.2754 -13.2754 -13.2743 -13.2743 -13.2626 -13.2626 -13.2430 -13.2430
   -13.2044 -13.2044 -13.1984 -13.1984 -13.1834 -13.1834 -13.1818 -13.1818
   -13.1194 -13.1194 -13.0949 -13.0949 -13.0925 -13.0925 -13.0770 -13.0770
   -12.9054 -12.9054 -12.7634 -12.7634 -12.7137 -12.7137 -12.6995 -12.6995
   -12.4202 -12.4202 -12.4193 -12.4193  -6.7226  -6.7226  -6.6859  -6.6859
    -6.6707  -6.6707  -6.6698  -6.6698  -6.6175  -6.6175  -6.6157  -6.6157
    -6.6036  -6.6036  -6.3797  -6.3797  -6.3655  -6.3655  -6.3430  -6.3430
    -6.3368  -6.3368  -6.3125  -6.3125  -6.3092  -6.3092  -6.3025  -6.3025
    -6.2873  -6.2873  -6.2788  -6.2788  -6.2425  -6.2425  -6.2394  -6.2394
    -6.2373  -6.2373  -6.2318  -6.2318  -6.2099  -6.2099  -6.2081  -6.2081
    -6.1936  -6.1936  -6.1561  -6.1561  -6.1491  -6.1491  -6.1299  -6.1299
    -6.1286  -6.1286  -5.9271  -5.9271  -5.9235  -5.9235  -5.9111  -5.9111
    -5.7225  -5.7225  -5.6860  -5.6860  -5.6835  -5.6835  -5.6824  -5.6824
    -5.5910  -5.5910  -5.5897  -5.5897  -5.5582  -5.5582  -5.3502  -5.3502
    -5.3192  -5.3192  -5.3085  -5.3085  -5.3026  -5.3026  -5.1279  -5.1279
    -5.1146  -5.1146  -5.1139  -5.1139  -5.1130  -5.1130  -5.0951  -5.0951
    -5.0939  -5.0939  -5.0918  -5.0918  -5.0703  -5.0703  -5.0577  -5.0577
    -5.0428  -5.0428  -5.0334  -5.0334  -4.9178  -4.9178  -4.9103  -4.9103
    -4.8410  -4.8410  -4.8366  -4.8366  -4.8302  -4.8302  -4.8046  -4.8046
    -4.7635  -4.7635  -4.7113  -4.7113  -4.7102  -4.7102  -4.6174  -4.6174
    -4.6068  -4.6068  -4.5572  -4.5572  -4.4733  -4.4733  -4.4638  -4.4638
    -4.4362  -4.4362  -4.4167  -4.4167  -4.4142  -4.4142  -4.4111  -4.4111
    -4.3840  -4.3840  -4.3707  -4.3707  -4.3159  -4.3159  -4.3158  -4.3158
    -4.3156  -4.3156  -4.2620  -4.2620  -4.2565  -4.2565  -4.2534  -4.2534
    -4.2311  -4.2311  -4.2142  -4.2142  -4.2097  -4.2097  -4.2054  -4.2054
    -4.1996  -4.1996  -4.1943  -4.1943  -4.1816  -4.1816  -4.1805  -4.1805
    -4.1051  -4.1051  -4.0651  -4.0651  -3.8522  -3.8522  -3.8154  -3.8154
    -3.7972  -3.7972  -3.7677  -3.7677  -3.7431  -3.7431  -3.7303  -3.7303
    -3.6921  -3.6921  -3.6857  -3.6857  -3.6846  -3.6846  -3.6694  -3.6694
    -3.6417  -3.6417  -3.3840  -3.3840  -3.3827  -3.3827  -3.3589  -3.3589
    -3.3577  -3.3577  -3.3552  -3.3552  -3.3480  -3.3480  -3.3466  -3.3466
    -3.2561  -3.2561  -3.2410  -3.2410  -3.1944  -3.1944  -3.1467  -3.1467
    -3.1339  -3.1339  -3.1185  -3.1185  -3.1129  -3.1129  -3.0700  -3.0700
    -3.0691  -3.0691  -3.0384  -3.0384  -3.0373  -3.0373  -3.0288  -3.0288
    -3.0019  -3.0019  -2.9199  -2.9199  -2.9168  -2.9168  -2.9124  -2.9124
    -2.8968  -2.8968  -2.8938  -2.8938  -2.8423  -2.8423  -2.8022  -2.8022
    -2.7708  -2.7708  -2.7509  -2.7509  -2.7372  -2.7372  -2.6748  -2.6748
    -2.3861  -2.3861  -2.3860  -2.3860  -2.3346  -2.3346  -2.3294  -2.3294
    -2.3157  -2.3157  -2.2955  -2.2955  -2.2751  -2.2751  -2.2746  -2.2746
    -2.2299  -2.2299  -2.2234  -2.2234  -2.2178  -2.2178  -2.2124  -2.2124
    -2.1737  -2.1737  -2.1702  -2.1702  -2.1297  -2.1297  -2.1147  -2.1147
    -2.1005  -2.1005  -1.9778  -1.9778  -1.9672  -1.9672  -1.9568  -1.9568
    -1.9483  -1.9483  -1.9459  -1.9459  -1.8757  -1.8757  -1.8420  -1.8420
    -1.8166  -1.8166  -1.7982  -1.7982  -1.7600  -1.7600  -1.7011  -1.7011
    -1.6633  -1.6633  -1.6263  -1.6263  -1.5702  -1.5702  -1.5694  -1.5694
    -1.5667  -1.5667  -1.5272  -1.5272  -1.4803  -1.4803  -1.4428  -1.4428
    -1.4108  -1.4108  -1.2995  -1.2995  -1.2703  -1.2703  -1.1731  -1.1731
    -0.8191  -0.8191  -0.8177  -0.8177

          k = 0.0000 0.2887 0.0000 ( 81955 PWs)   bands (ev):

   -62.1144 -62.1144 -62.1097 -62.1097 -62.1092 -62.1092 -62.0985 -62.0985
   -62.0981 -62.0981 -62.0932 -62.0932 -61.9926 -61.9926 -61.9891 -61.9891
   -61.9878 -61.9878 -61.9814 -61.9814 -61.9700 -61.9700 -61.9693 -61.9693
   -61.9623 -61.9623 -61.9599 -61.9599 -61.9585 -61.9585 -61.9579 -61.9579
   -61.9530 -61.9530 -61.9526 -61.9526 -61.9384 -61.9384 -61.9373 -61.9373
   -61.9369 -61.9369 -61.9316 -61.9316 -61.9307 -61.9307 -61.9303 -61.9303
   -37.9672 -37.9672 -37.9549 -37.9549 -37.9545 -37.9545 -37.9303 -37.9303
   -37.9288 -37.9287 -37.9174 -37.9174 -37.8481 -37.8480 -37.8434 -37.8431
   -37.8413 -37.8409 -37.8343 -37.8343 -37.8256 -37.8255 -37.8230 -37.8226
   -37.8199 -37.8196 -37.8164 -37.8164 -37.8119 -37.8119 -37.8071 -37.8070
   -37.7968 -37.7966 -37.7900 -37.7898 -37.7779 -37.7778 -37.7759 -37.7757
   -37.7651 -37.7651 -37.7470 -37.7470 -37.7410 -37.7410 -37.7256 -37.7256
   -35.5507 -35.5503 -35.5486 -35.5484 -35.5469 -35.5468 -35.5076 -35.5067
   -35.5059 -35.5050 -35.4902 -35.4902 -35.4667 -35.4662 -35.4640 -35.4636
   -35.4559 -35.4559 -35.4359 -35.4357 -35.4306 -35.4306 -35.4255 -35.4251
   -35.4183 -35.4181 -35.4140 -35.4139 -35.4109 -35.4109 -35.4059 -35.4058
   -35.3917 -35.3916 -35.3882 -35.3881 -35.3824 -35.3821 -35.3745 -35.3745
   -35.3693 -35.3693 -35.3635 -35.3635 -35.3494 -35.3491 -35.3414 -35.3413
   -35.3270 -35.3267 -35.3233 -35.3232 -35.3193 -35.3190 -35.3070 -35.3069
   -35.3054 -35.3051 -35.2971 -35.2970 -35.2917 -35.2914 -35.2868 -35.2867
   -35.2823 -35.2823 -35.2803 -35.2797 -35.2744 -35.2743 -35.2715 -35.2713
   -35.2682 -35.2679 -35.2628 -35.2624 -35.2602 -35.2602 -35.2585 -35.2583
   -35.2533 -35.2532 -35.2504 -35.2501 -35.2415 -35.2415 -35.2365 -35.2363
   -35.2279 -35.2279 -35.2097 -35.2096 -35.1951 -35.1951 -35.1578 -35.1577
   -15.1676 -15.1676 -14.8913 -14.8913 -14.7709 -14.7709 -14.6935 -14.6935
   -14.5182 -14.5182 -14.4719 -14.4719 -14.2864 -14.2864 -14.0848 -14.0848
   -14.0055 -14.0055 -13.8916 -13.8916 -13.8195 -13.8195 -13.7945 -13.7945
   -13.7814 -13.7814 -13.7667 -13.7667 -13.7235 -13.7235 -13.6863 -13.6863
   -13.6666 -13.6666 -13.6179 -13.6179 -13.6115 -13.6115 -13.5946 -13.5945
   -13.5766 -13.5765 -13.5341 -13.5340 -13.5026 -13.5026 -13.4443 -13.4443
   -13.4342 -13.4342 -13.4247 -13.4247 -13.4151 -13.4151 -13.3392 -13.3391
   -13.3363 -13.3363 -13.3278 -13.3278 -13.3139 -13.3138 -13.2814 -13.2814
   -13.2665 -13.2663 -13.2501 -13.2501 -13.2477 -13.2477 -13.2371 -13.2371
   -13.2332 -13.2332 -13.1970 -13.1970 -13.1858 -13.1858 -13.1796 -13.1796
   -13.1383 -13.1383 -13.1146 -13.1146 -13.0841 -13.0841 -13.0760 -13.0759
   -12.9023 -12.9023 -12.7627 -12.7627 -12.7173 -12.7172 -12.7030 -12.7030
   -12.4207 -12.4207 -12.4196 -12.4196  -6.8069  -6.8069  -6.7146  -6.7146
    -6.7093  -6.7093  -6.6710  -6.6710  -6.5764  -6.5764  -6.5641  -6.5641
    -6.4749  -6.4749  -6.4634  -6.4634  -6.4314  -6.4314  -6.4039  -6.4039
    -6.3857  -6.3857  -6.3816  -6.3816  -6.3431  -6.3431  -6.2852  -6.2852
    -6.2691  -6.2691  -6.2639  -6.2639  -6.2263  -6.2262  -6.2158  -6.2157
    -6.2115  -6.2115  -6.2061  -6.2061  -6.1893  -6.1893  -6.1681  -6.1681
    -6.1249  -6.1249  -6.1038  -6.1036  -6.0765  -6.0764  -6.0706  -6.0705
    -6.0681  -6.0680  -5.9022  -5.9019  -5.8969  -5.8965  -5.8657  -5.8657
    -5.8243  -5.8243  -5.7837  -5.7837  -5.7678  -5.7678  -5.7027  -5.7027
    -5.6506  -5.6505  -5.6380  -5.6379  -5.5030  -5.5030  -5.4982  -5.4981
    -5.3539  -5.3539  -5.3047  -5.3047  -5.2282  -5.2282  -5.1484  -5.1484
    -5.1285  -5.1285  -5.1015  -5.1015  -5.0723  -5.0723  -5.0604  -5.0604
    -5.0426  -5.0426  -5.0346  -5.0346  -4.9954  -4.9954  -4.9923  -4.9923
    -4.9515  -4.9515  -4.9433  -4.9432  -4.9240  -4.9240  -4.9160  -4.9160
    -4.8938  -4.8937  -4.8689  -4.8689  -4.8651  -4.8651  -4.8272  -4.8272
    -4.8048  -4.8048  -4.7680  -4.7680  -4.6657  -4.6657  -4.6491  -4.6490
    -4.6242  -4.6242  -4.5712  -4.5712  -4.4993  -4.4993  -4.4867  -4.4867
    -4.4849  -4.4848  -4.4179  -4.4178  -4.4054  -4.4053  -4.3747  -4.3746
    -4.3634  -4.3633  -4.3562  -4.3562  -4.3411  -4.3410  -4.3326  -4.3326
    -4.3220  -4.3219  -4.2917  -4.2916  -4.2800  -4.2800  -4.2667  -4.2667
    -4.2438  -4.2437  -4.2342  -4.2342  -4.2116  -4.2114  -4.1930  -4.1929
    -4.1906  -4.1905  -4.1756  -4.1755  -4.1514  -4.1514  -4.1150  -4.1150
    -4.0965  -4.0965  -4.0456  -4.0456  -4.0150  -4.0150  -3.9607  -3.9607
    -3.8082  -3.8082  -3.8007  -3.8007  -3.7576  -3.7576  -3.7471  -3.7471
    -3.7267  -3.7267  -3.7132  -3.7132  -3.6606  -3.6606  -3.6241  -3.6241
    -3.5651  -3.5651  -3.4580  -3.4580  -3.4530  -3.4530  -3.4230  -3.4229
    -3.3602  -3.3602  -3.3040  -3.3039  -3.2772  -3.2771  -3.2343  -3.2343
    -3.2226  -3.2226  -3.2072  -3.2071  -3.1701  -3.1701  -3.1215  -3.1213
    -3.1064  -3.1064  -3.1024  -3.1024  -3.0872  -3.0870  -3.0696  -3.0695
    -2.9938  -2.9937  -2.9816  -2.9816  -2.9752  -2.9751  -2.9637  -2.9635
    -2.9607  -2.9605  -2.9402  -2.9402  -2.9278  -2.9277  -2.9220  -2.9219
    -2.8794  -2.8794  -2.8123  -2.8123  -2.7991  -2.7991  -2.7479  -2.7478
    -2.7391  -2.7391  -2.7348  -2.7348  -2.7048  -2.7048  -2.5566  -2.5565
    -2.5403  -2.5402  -2.4869  -2.4869  -2.4801  -2.4801  -2.4212  -2.4211
    -2.4121  -2.4121  -2.3873  -2.3873  -2.3567  -2.3567  -2.3476  -2.3476
    -2.2822  -2.2822  -2.2420  -2.2419  -2.2310  -2.2310  -2.2111  -2.2111
    -2.1970  -2.1969  -2.1726  -2.1725  -2.1345  -2.1344  -2.0839  -2.0838
    -2.0534  -2.0534  -2.0332  -2.0332  -1.9550  -1.9550  -1.9439  -1.9438
    -1.8908  -1.8906  -1.8733  -1.8732  -1.8423  -1.8421  -1.8265  -1.8264
    -1.8069  -1.8067  -1.7602  -1.7602  -1.7420  -1.7418  -1.7254  -1.7253
    -1.7031  -1.7030  -1.6398  -1.6396  -1.6076  -1.6076  -1.5791  -1.5790
    -1.5169  -1.5168  -1.4944  -1.4942  -1.4516  -1.4516  -1.4134  -1.4133
    -1.3730  -1.3730  -1.3611  -1.3609  -1.2622  -1.2620  -1.1820  -1.1820
    -0.8148  -0.8145  -0.8104  -0.8100

          k = 0.0000-0.5774 0.0000 ( 82012 PWs)   bands (ev):

   -62.1145 -62.1145 -62.1097 -62.1097 -62.1093 -62.1093 -62.0985 -62.0985
   -62.0981 -62.0981 -62.0932 -62.0932 -61.9926 -61.9926 -61.9891 -61.9891
   -61.9879 -61.9879 -61.9815 -61.9815 -61.9700 -61.9700 -61.9693 -61.9693
   -61.9623 -61.9623 -61.9599 -61.9599 -61.9584 -61.9584 -61.9578 -61.9578
   -61.9532 -61.9532 -61.9526 -61.9526 -61.9384 -61.9384 -61.9373 -61.9373
   -61.9369 -61.9369 -61.9313 -61.9313 -61.9310 -61.9310 -61.9302 -61.9302
   -37.9671 -37.9671 -37.9549 -37.9549 -37.9546 -37.9546 -37.9304 -37.9304
   -37.9288 -37.9288 -37.9173 -37.9173 -37.8478 -37.8478 -37.8433 -37.8433
   -37.8391 -37.8391 -37.8366 -37.8366 -37.8260 -37.8260 -37.8238 -37.8238
   -37.8204 -37.8204 -37.8175 -37.8175 -37.8120 -37.8120 -37.8059 -37.8059
   -37.7887 -37.7887 -37.7850 -37.7850 -37.7830 -37.7830 -37.7814 -37.7814
   -37.7686 -37.7686 -37.7466 -37.7466 -37.7351 -37.7351 -37.7288 -37.7288
   -35.5509 -35.5509 -35.5482 -35.5482 -35.5471 -35.5471 -35.5072 -35.5072
   -35.5052 -35.5052 -35.4893 -35.4893 -35.4674 -35.4674 -35.4636 -35.4636
   -35.4572 -35.4572 -35.4360 -35.4360 -35.4282 -35.4282 -35.4250 -35.4250
   -35.4206 -35.4206 -35.4131 -35.4131 -35.4090 -35.4090 -35.4027 -35.4027
   -35.3924 -35.3924 -35.3920 -35.3920 -35.3801 -35.3801 -35.3772 -35.3772
   -35.3683 -35.3683 -35.3615 -35.3615 -35.3480 -35.3480 -35.3404 -35.3404
   -35.3323 -35.3323 -35.3247 -35.3247 -35.3196 -35.3196 -35.3109 -35.3109
   -35.3041 -35.3041 -35.2963 -35.2963 -35.2895 -35.2895 -35.2864 -35.2864
   -35.2827 -35.2827 -35.2787 -35.2787 -35.2719 -35.2719 -35.2706 -35.2706
   -35.2666 -35.2666 -35.2653 -35.2653 -35.2596 -35.2596 -35.2587 -35.2587
   -35.2511 -35.2511 -35.2491 -35.2491 -35.2451 -35.2451 -35.2406 -35.2406
   -35.2312 -35.2312 -35.2081 -35.2081 -35.1809 -35.1809 -35.1668 -35.1668
   -15.0961 -15.0961 -15.0219 -15.0219 -14.8034 -14.8034 -14.7137 -14.7137
   -14.3364 -14.3364 -14.3024 -14.3024 -14.2971 -14.2971 -14.2184 -14.2184
   -14.0907 -14.0907 -13.9713 -13.9713 -13.8686 -13.8686 -13.8266 -13.8266
   -13.7895 -13.7895 -13.7712 -13.7712 -13.7354 -13.7354 -13.6942 -13.6942
   -13.6903 -13.6903 -13.5944 -13.5944 -13.5520 -13.5520 -13.5421 -13.5421
   -13.5247 -13.5247 -13.5071 -13.5071 -13.4396 -13.4396 -13.4239 -13.4239
   -13.4154 -13.4154 -13.3949 -13.3949 -13.3862 -13.3862 -13.3791 -13.3791
   -13.3751 -13.3751 -13.3710 -13.3710 -13.3363 -13.3363 -13.3336 -13.3336
   -13.2813 -13.2813 -13.2450 -13.2450 -13.2303 -13.2303 -13.2018 -13.2018
   -13.1938 -13.1938 -13.1875 -13.1875 -13.1844 -13.1844 -13.1727 -13.1727
   -13.1668 -13.1668 -13.1615 -13.1615 -13.0782 -13.0782 -13.0755 -13.0755
   -12.8997 -12.8997 -12.7619 -12.7619 -12.7212 -12.7212 -12.7061 -12.7061
   -12.4212 -12.4212 -12.4196 -12.4196  -6.8608  -6.8608  -6.7198  -6.7198
    -6.7100  -6.7100  -6.6385  -6.6385  -6.6177  -6.6177  -6.5921  -6.5921
    -6.5109  -6.5109  -6.4376  -6.4376  -6.4175  -6.4175  -6.3889  -6.3889
    -6.3841  -6.3841  -6.3414  -6.3414  -6.3362  -6.3362  -6.3267  -6.3267
    -6.2881  -6.2881  -6.2853  -6.2853  -6.2700  -6.2700  -6.2298  -6.2298
    -6.2135  -6.2135  -6.1786  -6.1786  -6.0863  -6.0863  -6.0796  -6.0796
    -6.0589  -6.0589  -6.0437  -6.0437  -6.0155  -6.0155  -6.0028  -6.0028
    -5.9975  -5.9975  -5.9574  -5.9574  -5.9530  -5.9530  -5.8820  -5.8820
    -5.8683  -5.8683  -5.8517  -5.8517  -5.8333  -5.8333  -5.7724  -5.7724
    -5.7507  -5.7507  -5.6656  -5.6656  -5.4701  -5.4701  -5.4444  -5.4444
    -5.3393  -5.3393  -5.3107  -5.3107  -5.1677  -5.1677  -5.1355  -5.1355
    -5.1126  -5.1126  -5.0559  -5.0559  -5.0472  -5.0472  -5.0407  -5.0407
    -5.0162  -5.0162  -4.9910  -4.9910  -4.9829  -4.9829  -4.9762  -4.9762
    -4.9746  -4.9746  -4.9680  -4.9680  -4.9384  -4.9384  -4.9237  -4.9237
    -4.9083  -4.9083  -4.8864  -4.8864  -4.8568  -4.8568  -4.8203  -4.8203
    -4.8150  -4.8150  -4.7342  -4.7342  -4.7181  -4.7181  -4.6840  -4.6840
    -4.6612  -4.6612  -4.6462  -4.6462  -4.6087  -4.6087  -4.5682  -4.5682
    -4.4609  -4.4609  -4.4135  -4.4135  -4.3773  -4.3773  -4.3696  -4.3696
    -4.3541  -4.3541  -4.3361  -4.3361  -4.3304  -4.3304  -4.3164  -4.3164
    -4.3060  -4.3060  -4.2993  -4.2993  -4.2830  -4.2830  -4.2757  -4.2757
    -4.2546  -4.2546  -4.2310  -4.2310  -4.2053  -4.2053  -4.1878  -4.1878
    -4.1707  -4.1707  -4.1439  -4.1439  -4.0674  -4.0674  -4.0274  -4.0274
    -4.0198  -4.0198  -4.0066  -4.0066  -4.0019  -4.0019  -3.9939  -3.9939
    -3.9167  -3.9167  -3.8647  -3.8647  -3.8411  -3.8411  -3.8015  -3.8015
    -3.7827  -3.7827  -3.7063  -3.7063  -3.6998  -3.6998  -3.6574  -3.6574
    -3.5966  -3.5966  -3.5626  -3.5626  -3.4785  -3.4785  -3.4606  -3.4606
    -3.4510  -3.4510  -3.3907  -3.3907  -3.3286  -3.3286  -3.2230  -3.2230
    -3.1961  -3.1961  -3.1582  -3.1582  -3.0980  -3.0980  -3.0068  -3.0068
    -2.9905  -2.9905  -2.9818  -2.9818  -2.9564  -2.9564  -2.9468  -2.9468
    -2.9388  -2.9388  -2.9181  -2.9181  -2.8984  -2.8984  -2.8879  -2.8879
    -2.8633  -2.8633  -2.8570  -2.8570  -2.8484  -2.8484  -2.8198  -2.8198
    -2.8023  -2.8023  -2.7892  -2.7892  -2.7687  -2.7687  -2.7532  -2.7532
    -2.7401  -2.7401  -2.7027  -2.7027  -2.6743  -2.6743  -2.6364  -2.6364
    -2.6277  -2.6277  -2.6128  -2.6128  -2.6042  -2.6042  -2.5765  -2.5765
    -2.5526  -2.5526  -2.5404  -2.5404  -2.5152  -2.5152  -2.4707  -2.4707
    -2.3719  -2.3719  -2.2975  -2.2975  -2.2150  -2.2150  -2.2053  -2.2053
    -2.1639  -2.1639  -2.1394  -2.1394  -2.1012  -2.1012  -2.0238  -2.0238
    -2.0187  -2.0187  -2.0171  -2.0171  -1.9887  -1.9887  -1.9356  -1.9356
    -1.9038  -1.9038  -1.8675  -1.8675  -1.8477  -1.8477  -1.8324  -1.8324
    -1.8087  -1.8087  -1.7656  -1.7656  -1.7035  -1.7035  -1.6999  -1.6999
    -1.6857  -1.6857  -1.6072  -1.6072  -1.5782  -1.5782  -1.5580  -1.5580
    -1.5517  -1.5517  -1.4899  -1.4899  -1.4700  -1.4700  -1.4300  -1.4300
    -1.3896  -1.3896  -1.2878  -1.2878  -1.2646  -1.2646  -1.2032  -1.2032
    -0.8095  -0.8095  -0.8036  -0.8036

          k = 0.2500 0.4330 0.0000 ( 81978 PWs)   bands (ev):

   -62.1145 -62.1145 -62.1097 -62.1097 -62.1093 -62.1093 -62.0985 -62.0985
   -62.0981 -62.0981 -62.0932 -62.0932 -61.9926 -61.9926 -61.9891 -61.9891
   -61.9879 -61.9879 -61.9815 -61.9815 -61.9699 -61.9699 -61.9693 -61.9693
   -61.9623 -61.9623 -61.9600 -61.9600 -61.9586 -61.9586 -61.9576 -61.9576
   -61.9531 -61.9531 -61.9527 -61.9527 -61.9383 -61.9383 -61.9373 -61.9373
   -61.9370 -61.9370 -61.9314 -61.9314 -61.9308 -61.9308 -61.9303 -61.9303
   -37.9672 -37.9670 -37.9550 -37.9549 -37.9547 -37.9545 -37.9305 -37.9303
   -37.9288 -37.9287 -37.9174 -37.9172 -37.8478 -37.8475 -37.8440 -37.8427
   -37.8397 -37.8395 -37.8361 -37.8360 -37.8265 -37.8248 -37.8234 -37.8228
   -37.8211 -37.8204 -37.8193 -37.8168 -37.8155 -37.8106 -37.8051 -37.8019
   -37.7943 -37.7894 -37.7863 -37.7860 -37.7823 -37.7823 -37.7774 -37.7767
   -37.7719 -37.7700 -37.7472 -37.7454 -37.7355 -37.7347 -37.7290 -37.7287
   -35.5506 -35.5504 -35.5489 -35.5487 -35.5473 -35.5464 -35.5079 -35.5071
   -35.5053 -35.5047 -35.4894 -35.4892 -35.4683 -35.4668 -35.4651 -35.4620
   -35.4582 -35.4558 -35.4366 -35.4354 -35.4296 -35.4296 -35.4236 -35.4235
   -35.4194 -35.4176 -35.4168 -35.4123 -35.4112 -35.4077 -35.4056 -35.4035
   -35.3940 -35.3927 -35.3896 -35.3848 -35.3828 -35.3818 -35.3784 -35.3739
   -35.3702 -35.3653 -35.3640 -35.3605 -35.3539 -35.3471 -35.3439 -35.3361
   -35.3353 -35.3282 -35.3231 -35.3225 -35.3208 -35.3203 -35.3095 -35.3087
   -35.3067 -35.3032 -35.2986 -35.2971 -35.2919 -35.2900 -35.2854 -35.2837
   -35.2830 -35.2810 -35.2793 -35.2783 -35.2729 -35.2729 -35.2710 -35.2707
   -35.2668 -35.2664 -35.2641 -35.2638 -35.2615 -35.2604 -35.2591 -35.2581
   -35.2518 -35.2513 -35.2470 -35.2469 -35.2450 -35.2445 -35.2422 -35.2373
   -35.2354 -35.2346 -35.2091 -35.2025 -35.1836 -35.1808 -35.1670 -35.1659
   -15.1055 -15.1050 -14.9883 -14.9869 -14.8828 -14.8821 -14.5781 -14.5716
   -14.5154 -14.5101 -14.3158 -14.3073 -14.2521 -14.2459 -14.1469 -14.1393
   -14.0302 -14.0170 -14.0042 -13.9931 -13.9301 -13.9213 -13.8704 -13.8704
   -13.8194 -13.8193 -13.7749 -13.7739 -13.7584 -13.7584 -13.6445 -13.6440
   -13.6160 -13.6157 -13.5784 -13.5731 -13.5528 -13.5453 -13.5389 -13.5386
   -13.5377 -13.5189 -13.5188 -13.5167 -13.4615 -13.4610 -13.4298 -13.4287
   -13.4277 -13.4250 -13.4156 -13.4152 -13.4136 -13.4120 -13.3890 -13.3886
   -13.3734 -13.3729 -13.3698 -13.3693 -13.3154 -13.3010 -13.3008 -13.2887
   -13.2771 -13.2514 -13.2495 -13.2456 -13.2450 -13.2435 -13.2240 -13.2188
   -13.2171 -13.1896 -13.1890 -13.1873 -13.1857 -13.1844 -13.1791 -13.1782
   -13.1688 -13.1678 -13.1286 -13.1263 -13.1028 -13.1001 -13.0660 -13.0633
   -12.9014 -12.8983 -12.7619 -12.7618 -12.7239 -12.7172 -12.7116 -12.7015
   -12.4212 -12.4208 -12.4200 -12.4196  -6.8291  -6.8221  -6.8033  -6.7966
    -6.7362  -6.7233  -6.6040  -6.6032  -6.5735  -6.5687  -6.5163  -6.5051
    -6.4880  -6.4853  -6.4847  -6.4791  -6.4790  -6.4767  -6.4602  -6.4509
    -6.3845  -6.3834  -6.3523  -6.3513  -6.3220  -6.3205  -6.3084  -6.2993
    -6.2950  -6.2940  -6.2585  -6.2584  -6.2323  -6.2315  -6.2294  -6.2224
    -6.1917  -6.1905  -6.1858  -6.1812  -6.1538  -6.1528  -6.1319  -6.1250
    -6.0938  -6.0860  -6.0460  -6.0391  -6.0162  -6.0118  -6.0111  -6.0092
    -5.9867  -5.9837  -5.9446  -5.9411  -5.9040  -5.9011  -5.8830  -5.8822
    -5.8639  -5.8607  -5.8076  -5.8020  -5.8013  -5.7997  -5.7706  -5.7649
    -5.7184  -5.7107  -5.6989  -5.6915  -5.6349  -5.6185  -5.4947  -5.4889
    -5.2228  -5.2163  -5.1699  -5.1694  -5.1648  -5.1638  -5.1486  -5.1428
    -5.1188  -5.1075  -5.1001  -5.0747  -5.0631  -5.0518  -5.0382  -5.0353
    -5.0254  -5.0202  -5.0174  -5.0128  -5.0108  -5.0068  -4.9949  -4.9896
    -4.9813  -4.9774  -4.9691  -4.9658  -4.9506  -4.9494  -4.9283  -4.9259
    -4.9145  -4.9080  -4.8937  -4.8920  -4.8479  -4.8420  -4.8219  -4.8214
    -4.8178  -4.8140  -4.8099  -4.8053  -4.7874  -4.7833  -4.7682  -4.7636
    -4.6508  -4.6437  -4.6069  -4.5991  -4.5494  -4.5237  -4.4491  -4.4345
    -4.4141  -4.4109  -4.3858  -4.3852  -4.3775  -4.3710  -4.3614  -4.3503
    -4.3413  -4.3393  -4.3333  -4.3261  -4.3212  -4.3207  -4.3081  -4.3066
    -4.3035  -4.2961  -4.2934  -4.2876  -4.2763  -4.2760  -4.2744  -4.2635
    -4.2560  -4.2555  -4.2358  -4.2331  -4.2165  -4.2078  -4.2021  -4.1918
    -4.1727  -4.1702  -4.1633  -4.1584  -4.1250  -4.1238  -4.1097  -4.1096
    -4.0652  -4.0612  -4.0180  -4.0151  -4.0054  -4.0012  -3.9581  -3.9512
    -3.9453  -3.9254  -3.9167  -3.9088  -3.8364  -3.8336  -3.8324  -3.8162
    -3.8064  -3.7931  -3.7681  -3.7664  -3.7500  -3.7470  -3.6808  -3.6770
    -3.5962  -3.5866  -3.4446  -3.4408  -3.4322  -3.4216  -3.3972  -3.3784
    -3.3536  -3.3450  -3.3193  -3.3119  -3.2568  -3.2534  -3.2531  -3.2008
    -3.1940  -3.1909  -3.1680  -3.1555  -3.1443  -3.1289  -3.1223  -3.0928
    -3.0331  -3.0046  -3.0041  -3.0018  -2.9869  -2.9858  -2.9811  -2.9791
    -2.9778  -2.9728  -2.9712  -2.9653  -2.9309  -2.9303  -2.9098  -2.8931
    -2.8895  -2.8787  -2.8759  -2.8687  -2.8610  -2.8578  -2.8402  -2.8359
    -2.8055  -2.8037  -2.7985  -2.7862  -2.7749  -2.7685  -2.7578  -2.7437
    -2.7213  -2.7198  -2.6938  -2.6764  -2.6746  -2.6500  -2.6447  -2.6376
    -2.6289  -2.6262  -2.6170  -2.6109  -2.6024  -2.5857  -2.5800  -2.5553
    -2.5535  -2.5329  -2.4561  -2.4443  -2.4204  -2.4074  -2.3967  -2.3896
    -2.3798  -2.3670  -2.3242  -2.3111  -2.2999  -2.2397  -2.2358  -2.2298
    -2.1970  -2.1464  -2.1435  -2.1389  -2.1227  -2.1196  -2.0597  -2.0462
    -2.0378  -2.0325  -2.0206  -2.0048  -1.9865  -1.9844  -1.9493  -1.9472
    -1.9333  -1.9118  -1.8889  -1.8726  -1.8518  -1.8348  -1.8196  -1.7912
    -1.7753  -1.7712  -1.7373  -1.7334  -1.7208  -1.6961  -1.6911  -1.6763
    -1.6675  -1.6632  -1.6578  -1.6288  -1.5976  -1.5892  -1.5774  -1.5730
    -1.5638  -1.5266  -1.5203  -1.5040  -1.4856  -1.4381  -1.4349  -1.4191
    -1.3895  -1.3549  -1.3181  -1.2862  -1.2809  -1.2271  -1.2058  -1.2011
    -0.8145  -0.8059  -0.8052  -0.8017

          k =-0.2500 0.1443 0.0000 ( 81955 PWs)   bands (ev):

   -62.1144 -62.1144 -62.1097 -62.1097 -62.1092 -62.1092 -62.0985 -62.0985
   -62.0981 -62.0981 -62.0932 -62.0932 -61.9926 -61.9926 -61.9891 -61.9891
   -61.9879 -61.9879 -61.9814 -61.9814 -61.9700 -61.9700 -61.9693 -61.9693
   -61.9623 -61.9623 -61.9600 -61.9600 -61.9584 -61.9584 -61.9579 -61.9579
   -61.9530 -61.9530 -61.9526 -61.9526 -61.9384 -61.9384 -61.9373 -61.9373
   -61.9369 -61.9369 -61.9316 -61.9316 -61.9306 -61.9306 -61.9303 -61.9303
   -37.9672 -37.9672 -37.9549 -37.9549 -37.9545 -37.9545 -37.9303 -37.9303
   -37.9288 -37.9288 -37.9174 -37.9174 -37.8480 -37.8480 -37.8435 -37.8430
   -37.8415 -37.8408 -37.8343 -37.8343 -37.8256 -37.8255 -37.8230 -37.8225
   -37.8199 -37.8196 -37.8164 -37.8164 -37.8120 -37.8120 -37.8072 -37.8071
   -37.7968 -37.7965 -37.7900 -37.7897 -37.7779 -37.7778 -37.7759 -37.7757
   -37.7652 -37.7652 -37.7471 -37.7470 -37.7410 -37.7409 -37.7256 -37.7256
   -35.5507 -35.5503 -35.5486 -35.5485 -35.5470 -35.5467 -35.5077 -35.5065
   -35.5061 -35.5049 -35.4902 -35.4902 -35.4669 -35.4663 -35.4639 -35.4634
   -35.4559 -35.4559 -35.4360 -35.4357 -35.4306 -35.4305 -35.4256 -35.4250
   -35.4183 -35.4182 -35.4142 -35.4139 -35.4108 -35.4107 -35.4060 -35.4058
   -35.3917 -35.3916 -35.3883 -35.3881 -35.3824 -35.3820 -35.3744 -35.3744
   -35.3693 -35.3693 -35.3636 -35.3635 -35.3494 -35.3490 -35.3414 -35.3413
   -35.3272 -35.3267 -35.3231 -35.3230 -35.3196 -35.3190 -35.3069 -35.3068
   -35.3055 -35.3050 -35.2970 -35.2969 -35.2918 -35.2913 -35.2869 -35.2868
   -35.2824 -35.2823 -35.2804 -35.2795 -35.2743 -35.2742 -35.2715 -35.2713
   -35.2683 -35.2679 -35.2628 -35.2622 -35.2603 -35.2603 -35.2585 -35.2583
   -35.2533 -35.2532 -35.2505 -35.2500 -35.2416 -35.2416 -35.2365 -35.2362
   -35.2279 -35.2279 -35.2097 -35.2096 -35.1951 -35.1951 -35.1578 -35.1577
   -15.1677 -15.1677 -14.8912 -14.8912 -14.7709 -14.7709 -14.6937 -14.6937
   -14.5181 -14.5181 -14.4718 -14.4718 -14.2864 -14.2864 -14.0848 -14.0847
   -14.0054 -14.0053 -13.8916 -13.8916 -13.8196 -13.8196 -13.7945 -13.7945
   -13.7813 -13.7813 -13.7668 -13.7668 -13.7236 -13.7236 -13.6865 -13.6865
   -13.6666 -13.6666 -13.6178 -13.6178 -13.6114 -13.6114 -13.5947 -13.5946
   -13.5767 -13.5764 -13.5340 -13.5338 -13.5026 -13.5026 -13.4442 -13.4442
   -13.4342 -13.4341 -13.4247 -13.4246 -13.4150 -13.4150 -13.3394 -13.3394
   -13.3363 -13.3363 -13.3278 -13.3278 -13.3139 -13.3137 -13.2814 -13.2814
   -13.2665 -13.2662 -13.2501 -13.2501 -13.2476 -13.2476 -13.2372 -13.2372
   -13.2333 -13.2332 -13.1971 -13.1970 -13.1858 -13.1857 -13.1796 -13.1796
   -13.1382 -13.1382 -13.1146 -13.1146 -13.0842 -13.0842 -13.0759 -13.0759
   -12.9023 -12.9023 -12.7627 -12.7627 -12.7172 -12.7172 -12.7030 -12.7030
   -12.4207 -12.4207 -12.4196 -12.4196  -6.8069  -6.8069  -6.7146  -6.7146
    -6.7093  -6.7092  -6.6710  -6.6710  -6.5766  -6.5766  -6.5643  -6.5642
    -6.4749  -6.4748  -6.4633  -6.4633  -6.4313  -6.4313  -6.4040  -6.4039
    -6.3858  -6.3857  -6.3814  -6.3814  -6.3432  -6.3432  -6.2852  -6.2852
    -6.2693  -6.2693  -6.2639  -6.2638  -6.2264  -6.2264  -6.2158  -6.2156
    -6.2115  -6.2115  -6.2062  -6.2060  -6.1893  -6.1893  -6.1681  -6.1681
    -6.1249  -6.1248  -6.1037  -6.1035  -6.0765  -6.0764  -6.0706  -6.0705
    -6.0681  -6.0681  -5.9023  -5.9017  -5.8971  -5.8965  -5.8656  -5.8656
    -5.8243  -5.8243  -5.7837  -5.7837  -5.7678  -5.7678  -5.7028  -5.7028
    -5.6505  -5.6504  -5.6380  -5.6379  -5.5031  -5.5031  -5.4983  -5.4982
    -5.3538  -5.3538  -5.3046  -5.3046  -5.2283  -5.2283  -5.1484  -5.1484
    -5.1284  -5.1284  -5.1016  -5.1016  -5.0724  -5.0724  -5.0604  -5.0604
    -5.0425  -5.0425  -5.0348  -5.0347  -4.9954  -4.9953  -4.9922  -4.9922
    -4.9515  -4.9514  -4.9432  -4.9432  -4.9240  -4.9240  -4.9160  -4.9160
    -4.8937  -4.8937  -4.8689  -4.8689  -4.8651  -4.8651  -4.8272  -4.8272
    -4.8050  -4.8049  -4.7681  -4.7680  -4.6657  -4.6657  -4.6490  -4.6489
    -4.6242  -4.6242  -4.5711  -4.5711  -4.4994  -4.4994  -4.4868  -4.4867
    -4.4850  -4.4849  -4.4179  -4.4177  -4.4054  -4.4052  -4.3746  -4.3745
    -4.3633  -4.3632  -4.3562  -4.3562  -4.3411  -4.3410  -4.3326  -4.3326
    -4.3220  -4.3218  -4.2918  -4.2917  -4.2800  -4.2799  -4.2667  -4.2666
    -4.2438  -4.2437  -4.2343  -4.2342  -4.2116  -4.2114  -4.1931  -4.1929
    -4.1907  -4.1905  -4.1756  -4.1755  -4.1515  -4.1514  -4.1150  -4.1150
    -4.0964  -4.0964  -4.0455  -4.0455  -4.0150  -4.0150  -3.9607  -3.9607
    -3.8081  -3.8081  -3.8007  -3.8007  -3.7577  -3.7576  -3.7471  -3.7471
    -3.7268  -3.7268  -3.7133  -3.7132  -3.6607  -3.6606  -3.6241  -3.6241
    -3.5651  -3.5651  -3.4581  -3.4581  -3.4530  -3.4530  -3.4230  -3.4230
    -3.3602  -3.3601  -3.3041  -3.3039  -3.2772  -3.2770  -3.2343  -3.2341
    -3.2226  -3.2226  -3.2071  -3.2070  -3.1701  -3.1701  -3.1215  -3.1213
    -3.1065  -3.1064  -3.1025  -3.1024  -3.0872  -3.0870  -3.0696  -3.0696
    -2.9937  -2.9937  -2.9815  -2.9815  -2.9751  -2.9750  -2.9637  -2.9635
    -2.9606  -2.9605  -2.9403  -2.9402  -2.9278  -2.9277  -2.9220  -2.9219
    -2.8795  -2.8795  -2.8122  -2.8122  -2.7991  -2.7991  -2.7479  -2.7479
    -2.7392  -2.7391  -2.7347  -2.7347  -2.7048  -2.7047  -2.5566  -2.5565
    -2.5403  -2.5401  -2.4871  -2.4870  -2.4801  -2.4801  -2.4211  -2.4211
    -2.4120  -2.4120  -2.3874  -2.3873  -2.3568  -2.3567  -2.3476  -2.3476
    -2.2822  -2.2822  -2.2420  -2.2419  -2.2310  -2.2309  -2.2112  -2.2110
    -2.1970  -2.1969  -2.1726  -2.1725  -2.1346  -2.1345  -2.0838  -2.0837
    -2.0533  -2.0533  -2.0333  -2.0333  -1.9549  -1.9549  -1.9439  -1.9438
    -1.8907  -1.8906  -1.8733  -1.8732  -1.8424  -1.8421  -1.8266  -1.8264
    -1.8069  -1.8066  -1.7602  -1.7601  -1.7421  -1.7419  -1.7254  -1.7253
    -1.7031  -1.7030  -1.6398  -1.6397  -1.6076  -1.6076  -1.5791  -1.5790
    -1.5169  -1.5169  -1.4945  -1.4942  -1.4515  -1.4515  -1.4133  -1.4133
    -1.3730  -1.3729  -1.3611  -1.3608  -1.2623  -1.2621  -1.1821  -1.1820
    -0.8148  -0.8145  -0.8104  -0.8100

          k = 0.2500 0.1443 0.0000 ( 81955 PWs)   bands (ev):

   -62.1144 -62.1144 -62.1097 -62.1097 -62.1092 -62.1092 -62.0985 -62.0985
   -62.0981 -62.0981 -62.0932 -62.0932 -61.9926 -61.9926 -61.9891 -61.9891
   -61.9879 -61.9879 -61.9814 -61.9814 -61.9700 -61.9700 -61.9694 -61.9694
   -61.9623 -61.9623 -61.9600 -61.9600 -61.9586 -61.9586 -61.9577 -61.9577
   -61.9528 -61.9528 -61.9528 -61.9528 -61.9384 -61.9384 -61.9373 -61.9373
   -61.9369 -61.9369 -61.9316 -61.9316 -61.9305 -61.9305 -61.9304 -61.9304
   -37.9672 -37.9672 -37.9549 -37.9549 -37.9545 -37.9545 -37.9303 -37.9303
   -37.9288 -37.9287 -37.9174 -37.9174 -37.8480 -37.8480 -37.8433 -37.8431
   -37.8414 -37.8412 -37.8342 -37.8342 -37.8256 -37.8256 -37.8223 -37.8222
   -37.8201 -37.8200 -37.8165 -37.8164 -37.8122 -37.8122 -37.8073 -37.8072
   -37.7966 -37.7964 -37.7898 -37.7897 -37.7777 -37.7777 -37.7758 -37.7758
   -37.7654 -37.7654 -37.7472 -37.7472 -37.7408 -37.7408 -37.7256 -37.7256
   -35.5502 -35.5502 -35.5490 -35.5488 -35.5469 -35.5467 -35.5076 -35.5074
   -35.5052 -35.5050 -35.4902 -35.4902 -35.4670 -35.4668 -35.4634 -35.4633
   -35.4559 -35.4559 -35.4358 -35.4357 -35.4303 -35.4303 -35.4255 -35.4253
   -35.4183 -35.4183 -35.4143 -35.4141 -35.4107 -35.4107 -35.4059 -35.4059
   -35.3917 -35.3917 -35.3884 -35.3884 -35.3822 -35.3821 -35.3743 -35.3743
   -35.3693 -35.3693 -35.3636 -35.3636 -35.3493 -35.3491 -35.3414 -35.3414
   -35.3271 -35.3270 -35.3228 -35.3228 -35.3196 -35.3194 -35.3066 -35.3066
   -35.3051 -35.3050 -35.2969 -35.2968 -35.2920 -35.2918 -35.2869 -35.2869
   -35.2828 -35.2827 -35.2800 -35.2797 -35.2740 -35.2740 -35.2714 -35.2713
   -35.2682 -35.2681 -35.2624 -35.2622 -35.2605 -35.2605 -35.2584 -35.2584
   -35.2533 -35.2533 -35.2502 -35.2500 -35.2417 -35.2416 -35.2363 -35.2363
   -35.2280 -35.2280 -35.2098 -35.2097 -35.1949 -35.1949 -35.1578 -35.1578
   -15.1677 -15.1677 -14.8912 -14.8912 -14.7709 -14.7709 -14.6936 -14.6936
   -14.5181 -14.5181 -14.4718 -14.4718 -14.2864 -14.2864 -14.0848 -14.0848
   -14.0053 -14.0053 -13.8916 -13.8916 -13.8197 -13.8197 -13.7944 -13.7944
   -13.7813 -13.7813 -13.7669 -13.7669 -13.7236 -13.7236 -13.6865 -13.6865
   -13.6666 -13.6666 -13.6178 -13.6178 -13.6114 -13.6114 -13.5947 -13.5947
   -13.5766 -13.5765 -13.5339 -13.5338 -13.5026 -13.5026 -13.4443 -13.4442
   -13.4341 -13.4341 -13.4247 -13.4246 -13.4150 -13.4149 -13.3395 -13.3395
   -13.3362 -13.3362 -13.3278 -13.3278 -13.3138 -13.3137 -13.2814 -13.2814
   -13.2664 -13.2663 -13.2502 -13.2501 -13.2476 -13.2475 -13.2372 -13.2372
   -13.2332 -13.2332 -13.1971 -13.1970 -13.1857 -13.1857 -13.1796 -13.1796
   -13.1382 -13.1382 -13.1145 -13.1145 -13.0844 -13.0844 -13.0759 -13.0758
   -12.9023 -12.9023 -12.7627 -12.7627 -12.7171 -12.7171 -12.7031 -12.7031
   -12.4204 -12.4204 -12.4199 -12.4199  -6.8069  -6.8069  -6.7146  -6.7146
    -6.7093  -6.7092  -6.6710  -6.6710  -6.5766  -6.5765  -6.5642  -6.5642
    -6.4749  -6.4749  -6.4632  -6.4632  -6.4313  -6.4313  -6.4040  -6.4039
    -6.3858  -6.3857  -6.3814  -6.3814  -6.3432  -6.3432  -6.2853  -6.2853
    -6.2693  -6.2693  -6.2638  -6.2638  -6.2265  -6.2265  -6.2158  -6.2157
    -6.2114  -6.2114  -6.2062  -6.2060  -6.1893  -6.1893  -6.1681  -6.1681
    -6.1249  -6.1249  -6.1033  -6.1033  -6.0764  -6.0764  -6.0707  -6.0706
    -6.0681  -6.0681  -5.9022  -5.9019  -5.8970  -5.8969  -5.8655  -5.8654
    -5.8243  -5.8243  -5.7837  -5.7837  -5.7678  -5.7678  -5.7028  -5.7028
    -5.6506  -5.6505  -5.6380  -5.6379  -5.5030  -5.5030  -5.4982  -5.4982
    -5.3539  -5.3539  -5.3044  -5.3044  -5.2284  -5.2284  -5.1485  -5.1485
    -5.1284  -5.1284  -5.1016  -5.1016  -5.0723  -5.0723  -5.0602  -5.0602
    -5.0426  -5.0426  -5.0349  -5.0348  -4.9954  -4.9954  -4.9923  -4.9922
    -4.9515  -4.9514  -4.9432  -4.9432  -4.9240  -4.9240  -4.9160  -4.9159
    -4.8937  -4.8937  -4.8689  -4.8689  -4.8651  -4.8651  -4.8274  -4.8274
    -4.8050  -4.8050  -4.7681  -4.7680  -4.6657  -4.6657  -4.6488  -4.6488
    -4.6244  -4.6244  -4.5710  -4.5710  -4.4993  -4.4993  -4.4867  -4.4867
    -4.4850  -4.4850  -4.4178  -4.4178  -4.4053  -4.4052  -4.3746  -4.3746
    -4.3632  -4.3632  -4.3563  -4.3562  -4.3411  -4.3411  -4.3326  -4.3326
    -4.3219  -4.3219  -4.2919  -4.2918  -4.2799  -4.2798  -4.2667  -4.2666
    -4.2438  -4.2437  -4.2343  -4.2342  -4.2116  -4.2115  -4.1931  -4.1930
    -4.1907  -4.1906  -4.1757  -4.1756  -4.1515  -4.1514  -4.1150  -4.1150
    -4.0965  -4.0964  -4.0454  -4.0454  -4.0148  -4.0148  -3.9606  -3.9606
    -3.8081  -3.8081  -3.8007  -3.8007  -3.7577  -3.7576  -3.7472  -3.7472
    -3.7268  -3.7268  -3.7132  -3.7132  -3.6607  -3.6607  -3.6240  -3.6240
    -3.5652  -3.5651  -3.4581  -3.4581  -3.4530  -3.4530  -3.4229  -3.4229
    -3.3600  -3.3600  -3.3041  -3.3041  -3.2771  -3.2770  -3.2342  -3.2342
    -3.2227  -3.2227  -3.2071  -3.2071  -3.1701  -3.1701  -3.1214  -3.1214
    -3.1065  -3.1065  -3.1025  -3.1025  -3.0872  -3.0871  -3.0696  -3.0696
    -2.9937  -2.9937  -2.9815  -2.9815  -2.9751  -2.9751  -2.9636  -2.9636
    -2.9606  -2.9606  -2.9402  -2.9401  -2.9277  -2.9277  -2.9219  -2.9219
    -2.8795  -2.8794  -2.8122  -2.8122  -2.7991  -2.7991  -2.7479  -2.7479
    -2.7392  -2.7391  -2.7349  -2.7348  -2.7048  -2.7048  -2.5566  -2.5565
    -2.5403  -2.5402  -2.4871  -2.4871  -2.4801  -2.4801  -2.4212  -2.4211
    -2.4120  -2.4119  -2.3874  -2.3873  -2.3567  -2.3566  -2.3476  -2.3475
    -2.2823  -2.2822  -2.2420  -2.2420  -2.2309  -2.2309  -2.2112  -2.2111
    -2.1970  -2.1970  -2.1724  -2.1724  -2.1346  -2.1346  -2.0838  -2.0838
    -2.0533  -2.0532  -2.0333  -2.0332  -1.9547  -1.9547  -1.9441  -1.9441
    -1.8906  -1.8906  -1.8732  -1.8732  -1.8424  -1.8423  -1.8265  -1.8265
    -1.8068  -1.8067  -1.7600  -1.7600  -1.7420  -1.7419  -1.7253  -1.7252
    -1.7031  -1.7031  -1.6397  -1.6397  -1.6077  -1.6077  -1.5791  -1.5791
    -1.5170  -1.5170  -1.4943  -1.4942  -1.4515  -1.4515  -1.4134  -1.4134
    -1.3730  -1.3730  -1.3609  -1.3608  -1.2623  -1.2623  -1.1821  -1.1820
    -0.8148  -0.8147  -0.8101  -0.8101

          k = 0.5000-0.2887 0.0000 ( 82012 PWs)   bands (ev):

   -62.1145 -62.1145 -62.1097 -62.1097 -62.1093 -62.1093 -62.0985 -62.0985
   -62.0981 -62.0981 -62.0932 -62.0932 -61.9926 -61.9926 -61.9891 -61.9891
   -61.9879 -61.9879 -61.9815 -61.9815 -61.9700 -61.9700 -61.9693 -61.9693
   -61.9623 -61.9623 -61.9600 -61.9600 -61.9583 -61.9583 -61.9578 -61.9578
   -61.9532 -61.9532 -61.9526 -61.9526 -61.9383 -61.9383 -61.9373 -61.9373
   -61.9369 -61.9369 -61.9314 -61.9314 -61.9308 -61.9308 -61.9303 -61.9303
   -37.9671 -37.9671 -37.9549 -37.9549 -37.9546 -37.9546 -37.9304 -37.9304
   -37.9288 -37.9288 -37.9173 -37.9173 -37.8477 -37.8477 -37.8434 -37.8434
   -37.8393 -37.8393 -37.8364 -37.8364 -37.8260 -37.8260 -37.8237 -37.8237
   -37.8203 -37.8203 -37.8175 -37.8175 -37.8121 -37.8121 -37.8060 -37.8060
   -37.7887 -37.7887 -37.7847 -37.7847 -37.7830 -37.7830 -37.7814 -37.7814
   -37.7687 -37.7687 -37.7466 -37.7466 -37.7350 -37.7350 -37.7288 -37.7288
   -35.5508 -35.5508 -35.5483 -35.5483 -35.5472 -35.5472 -35.5073 -35.5073
   -35.5051 -35.5051 -35.4893 -35.4893 -35.4677 -35.4677 -35.4633 -35.4633
   -35.4572 -35.4572 -35.4359 -35.4359 -35.4281 -35.4281 -35.4250 -35.4250
   -35.4206 -35.4206 -35.4132 -35.4132 -35.4089 -35.4089 -35.4029 -35.4029
   -35.3924 -35.3924 -35.3921 -35.3921 -35.3801 -35.3801 -35.3770 -35.3770
   -35.3682 -35.3682 -35.3617 -35.3617 -35.3480 -35.3480 -35.3404 -35.3404
   -35.3323 -35.3323 -35.3246 -35.3246 -35.3197 -35.3197 -35.3108 -35.3108
   -35.3042 -35.3042 -35.2961 -35.2961 -35.2896 -35.2896 -35.2865 -35.2865
   -35.2828 -35.2828 -35.2787 -35.2787 -35.2718 -35.2718 -35.2704 -35.2704
   -35.2666 -35.2666 -35.2653 -35.2653 -35.2597 -35.2597 -35.2587 -35.2587
   -35.2510 -35.2510 -35.2492 -35.2492 -35.2452 -35.2452 -35.2405 -35.2405
   -35.2312 -35.2312 -35.2081 -35.2081 -35.1808 -35.1808 -35.1668 -35.1668
   -15.0963 -15.0963 -15.0216 -15.0216 -14.8034 -14.8034 -14.7139 -14.7139
   -14.3364 -14.3364 -14.3024 -14.3024 -14.2970 -14.2970 -14.2183 -14.2183
   -14.0906 -14.0906 -13.9712 -13.9712 -13.8687 -13.8687 -13.8264 -13.8264
   -13.7896 -13.7896 -13.7713 -13.7713 -13.7354 -13.7354 -13.6943 -13.6943
   -13.6905 -13.6905 -13.5947 -13.5947 -13.5519 -13.5519 -13.5422 -13.5422
   -13.5247 -13.5247 -13.5070 -13.5070 -13.4396 -13.4396 -13.4237 -13.4237
   -13.4153 -13.4153 -13.3949 -13.3949 -13.3861 -13.3861 -13.3790 -13.3790
   -13.3751 -13.3751 -13.3709 -13.3709 -13.3364 -13.3364 -13.3338 -13.3338
   -13.2812 -13.2812 -13.2450 -13.2450 -13.2306 -13.2306 -13.2018 -13.2018
   -13.1937 -13.1937 -13.1874 -13.1874 -13.1843 -13.1843 -13.1726 -13.1726
   -13.1668 -13.1668 -13.1615 -13.1615 -13.0783 -13.0783 -13.0756 -13.0756
   -12.8997 -12.8997 -12.7619 -12.7619 -12.7212 -12.7212 -12.7061 -12.7061
   -12.4212 -12.4212 -12.4196 -12.4196  -6.8608  -6.8608  -6.7197  -6.7197
    -6.7099  -6.7099  -6.6387  -6.6387  -6.6178  -6.6178  -6.5922  -6.5922
    -6.5106  -6.5106  -6.4376  -6.4376  -6.4176  -6.4176  -6.3889  -6.3889
    -6.3841  -6.3841  -6.3412  -6.3412  -6.3363  -6.3363  -6.3267  -6.3267
    -6.2881  -6.2881  -6.2853  -6.2853  -6.2700  -6.2700  -6.2298  -6.2298
    -6.2137  -6.2137  -6.1786  -6.1786  -6.0862  -6.0862  -6.0795  -6.0795
    -6.0591  -6.0591  -6.0437  -6.0437  -6.0154  -6.0154  -6.0026  -6.0026
    -5.9975  -5.9975  -5.9574  -5.9574  -5.9531  -5.9531  -5.8821  -5.8821
    -5.8688  -5.8688  -5.8516  -5.8516  -5.8330  -5.8330  -5.7723  -5.7723
    -5.7507  -5.7507  -5.6657  -5.6657  -5.4703  -5.4703  -5.4445  -5.4445
    -5.3391  -5.3391  -5.3109  -5.3109  -5.1676  -5.1676  -5.1355  -5.1355
    -5.1127  -5.1127  -5.0559  -5.0559  -5.0473  -5.0473  -5.0407  -5.0407
    -5.0162  -5.0162  -4.9909  -4.9909  -4.9829  -4.9829  -4.9763  -4.9763
    -4.9746  -4.9746  -4.9679  -4.9679  -4.9384  -4.9384  -4.9235  -4.9235
    -4.9082  -4.9082  -4.8864  -4.8864  -4.8567  -4.8567  -4.8204  -4.8204
    -4.8151  -4.8151  -4.7342  -4.7342  -4.7182  -4.7182  -4.6840  -4.6840
    -4.6612  -4.6612  -4.6461  -4.6461  -4.6088  -4.6088  -4.5683  -4.5683
    -4.4608  -4.4608  -4.4135  -4.4135  -4.3773  -4.3773  -4.3696  -4.3696
    -4.3542  -4.3542  -4.3360  -4.3360  -4.3305  -4.3305  -4.3163  -4.3163
    -4.3060  -4.3060  -4.2993  -4.2993  -4.2829  -4.2829  -4.2757  -4.2757
    -4.2545  -4.2545  -4.2310  -4.2310  -4.2053  -4.2053  -4.1878  -4.1878
    -4.1707  -4.1707  -4.1439  -4.1439  -4.0675  -4.0675  -4.0274  -4.0274
    -4.0197  -4.0197  -4.0065  -4.0065  -4.0019  -4.0019  -3.9939  -3.9939
    -3.9165  -3.9165  -3.8647  -3.8647  -3.8411  -3.8411  -3.8016  -3.8016
    -3.7826  -3.7826  -3.7062  -3.7062  -3.6999  -3.6999  -3.6575  -3.6575
    -3.5968  -3.5968  -3.5626  -3.5626  -3.4787  -3.4787  -3.4606  -3.4606
    -3.4510  -3.4510  -3.3906  -3.3906  -3.3286  -3.3286  -3.2231  -3.2231
    -3.1959  -3.1959  -3.1583  -3.1583  -3.0979  -3.0979  -3.0068  -3.0068
    -2.9905  -2.9905  -2.9818  -2.9818  -2.9564  -2.9564  -2.9467  -2.9467
    -2.9387  -2.9387  -2.9181  -2.9181  -2.8984  -2.8984  -2.8878  -2.8878
    -2.8632  -2.8632  -2.8569  -2.8569  -2.8485  -2.8485  -2.8197  -2.8197
    -2.8023  -2.8023  -2.7891  -2.7891  -2.7687  -2.7687  -2.7533  -2.7533
    -2.7401  -2.7401  -2.7027  -2.7027  -2.6745  -2.6745  -2.6364  -2.6364
    -2.6278  -2.6278  -2.6128  -2.6128  -2.6042  -2.6042  -2.5766  -2.5766
    -2.5526  -2.5526  -2.5404  -2.5404  -2.5153  -2.5153  -2.4706  -2.4706
    -2.3718  -2.3718  -2.2976  -2.2976  -2.2150  -2.2150  -2.2052  -2.2052
    -2.1639  -2.1639  -2.1395  -2.1395  -2.1013  -2.1013  -2.0238  -2.0238
    -2.0187  -2.0187  -2.0170  -2.0170  -1.9888  -1.9888  -1.9355  -1.9355
    -1.9037  -1.9037  -1.8674  -1.8674  -1.8477  -1.8477  -1.8323  -1.8323
    -1.8088  -1.8088  -1.7656  -1.7656  -1.7034  -1.7034  -1.7000  -1.7000
    -1.6858  -1.6858  -1.6073  -1.6073  -1.5782  -1.5782  -1.5580  -1.5580
    -1.5517  -1.5517  -1.4900  -1.4900  -1.4698  -1.4698  -1.4299  -1.4299
    -1.3897  -1.3897  -1.2877  -1.2877  -1.2647  -1.2647  -1.2032  -1.2032
    -0.8095  -0.8095  -0.8036  -0.8036

          k =-0.5000-0.2887 0.0000 ( 82012 PWs)   bands (ev):

   -62.1145 -62.1145 -62.1097 -62.1097 -62.1093 -62.1093 -62.0985 -62.0985
   -62.0981 -62.0981 -62.0932 -62.0932 -61.9926 -61.9926 -61.9891 -61.9891
   -61.9879 -61.9879 -61.9815 -61.9815 -61.9699 -61.9699 -61.9694 -61.9694
   -61.9623 -61.9623 -61.9600 -61.9600 -61.9586 -61.9586 -61.9575 -61.9575
   -61.9531 -61.9531 -61.9528 -61.9528 -61.9383 -61.9383 -61.9373 -61.9373
   -61.9370 -61.9370 -61.9315 -61.9315 -61.9306 -61.9306 -61.9305 -61.9305
   -37.9671 -37.9671 -37.9550 -37.9550 -37.9546 -37.9546 -37.9304 -37.9304
   -37.9288 -37.9288 -37.9173 -37.9173 -37.8477 -37.8477 -37.8434 -37.8434
   -37.8399 -37.8399 -37.8359 -37.8359 -37.8260 -37.8260 -37.8231 -37.8231
   -37.8206 -37.8206 -37.8175 -37.8175 -37.8125 -37.8125 -37.8062 -37.8062
   -37.7886 -37.7886 -37.7843 -37.7843 -37.7831 -37.7831 -37.7813 -37.7813
   -37.7691 -37.7691 -37.7467 -37.7467 -37.7347 -37.7347 -37.7290 -37.7290
   -35.5500 -35.5500 -35.5493 -35.5493 -35.5469 -35.5469 -35.5077 -35.5077
   -35.5049 -35.5049 -35.4893 -35.4893 -35.4681 -35.4681 -35.4629 -35.4629
   -35.4572 -35.4572 -35.4358 -35.4358 -35.4280 -35.4280 -35.4251 -35.4251
   -35.4204 -35.4204 -35.4133 -35.4133 -35.4088 -35.4088 -35.4033 -35.4033
   -35.3928 -35.3928 -35.3922 -35.3922 -35.3801 -35.3801 -35.3767 -35.3767
   -35.3680 -35.3680 -35.3620 -35.3620 -35.3479 -35.3479 -35.3403 -35.3403
   -35.3324 -35.3324 -35.3245 -35.3245 -35.3199 -35.3199 -35.3104 -35.3104
   -35.3041 -35.3041 -35.2959 -35.2959 -35.2899 -35.2899 -35.2866 -35.2866
   -35.2834 -35.2834 -35.2787 -35.2787 -35.2718 -35.2718 -35.2702 -35.2702
   -35.2665 -35.2665 -35.2651 -35.2651 -35.2600 -35.2600 -35.2588 -35.2588
   -35.2508 -35.2508 -35.2493 -35.2493 -35.2451 -35.2451 -35.2404 -35.2404
   -35.2315 -35.2315 -35.2082 -35.2082 -35.1805 -35.1805 -35.1670 -35.1670
   -15.0963 -15.0963 -15.0217 -15.0217 -14.8035 -14.8035 -14.7139 -14.7139
   -14.3364 -14.3364 -14.3024 -14.3024 -14.2970 -14.2970 -14.2183 -14.2183
   -14.0906 -14.0906 -13.9712 -13.9712 -13.8688 -13.8688 -13.8264 -13.8264
   -13.7897 -13.7897 -13.7712 -13.7712 -13.7355 -13.7355 -13.6943 -13.6943
   -13.6905 -13.6905 -13.5947 -13.5947 -13.5519 -13.5519 -13.5422 -13.5422
   -13.5247 -13.5247 -13.5069 -13.5069 -13.4396 -13.4396 -13.4234 -13.4234
   -13.4154 -13.4154 -13.3949 -13.3949 -13.3861 -13.3861 -13.3791 -13.3791
   -13.3752 -13.3752 -13.3708 -13.3708 -13.3363 -13.3363 -13.3338 -13.3338
   -13.2813 -13.2813 -13.2451 -13.2451 -13.2308 -13.2308 -13.2019 -13.2019
   -13.1936 -13.1936 -13.1873 -13.1873 -13.1842 -13.1842 -13.1727 -13.1727
   -13.1669 -13.1669 -13.1614 -13.1614 -13.0783 -13.0783 -13.0755 -13.0755
   -12.8997 -12.8997 -12.7619 -12.7619 -12.7209 -12.7209 -12.7063 -12.7063
   -12.4207 -12.4207 -12.4201 -12.4201  -6.8608  -6.8608  -6.7198  -6.7198
    -6.7100  -6.7100  -6.6386  -6.6386  -6.6177  -6.6177  -6.5922  -6.5922
    -6.5107  -6.5107  -6.4376  -6.4376  -6.4175  -6.4175  -6.3889  -6.3889
    -6.3841  -6.3841  -6.3413  -6.3413  -6.3363  -6.3363  -6.3268  -6.3268
    -6.2882  -6.2882  -6.2854  -6.2854  -6.2700  -6.2700  -6.2297  -6.2297
    -6.2138  -6.2138  -6.1785  -6.1785  -6.0862  -6.0862  -6.0793  -6.0793
    -6.0590  -6.0590  -6.0436  -6.0436  -6.0155  -6.0155  -6.0026  -6.0026
    -5.9977  -5.9977  -5.9573  -5.9573  -5.9532  -5.9532  -5.8822  -5.8822
    -5.8690  -5.8690  -5.8514  -5.8514  -5.8328  -5.8328  -5.7724  -5.7724
    -5.7507  -5.7507  -5.6658  -5.6658  -5.4704  -5.4704  -5.4443  -5.4443
    -5.3388  -5.3388  -5.3111  -5.3111  -5.1678  -5.1678  -5.1354  -5.1354
    -5.1127  -5.1127  -5.0558  -5.0558  -5.0472  -5.0472  -5.0407  -5.0407
    -5.0162  -5.0162  -4.9909  -4.9909  -4.9831  -4.9831  -4.9763  -4.9763
    -4.9746  -4.9746  -4.9680  -4.9680  -4.9383  -4.9383  -4.9234  -4.9234
    -4.9082  -4.9082  -4.8866  -4.8866  -4.8567  -4.8567  -4.8205  -4.8205
    -4.8152  -4.8152  -4.7342  -4.7342  -4.7182  -4.7182  -4.6840  -4.6840
    -4.6613  -4.6613  -4.6461  -4.6461  -4.6087  -4.6087  -4.5682  -4.5682
    -4.4606  -4.4606  -4.4136  -4.4136  -4.3772  -4.3772  -4.3695  -4.3695
    -4.3540  -4.3540  -4.3360  -4.3360  -4.3304  -4.3304  -4.3164  -4.3164
    -4.3061  -4.3061  -4.2995  -4.2995  -4.2827  -4.2827  -4.2756  -4.2756
    -4.2546  -4.2546  -4.2312  -4.2312  -4.2054  -4.2054  -4.1879  -4.1879
    -4.1706  -4.1706  -4.1438  -4.1438  -4.0673  -4.0673  -4.0275  -4.0275
    -4.0195  -4.0195  -4.0065  -4.0065  -4.0021  -4.0021  -3.9941  -3.9941
    -3.9165  -3.9165  -3.8647  -3.8647  -3.8410  -3.8410  -3.8016  -3.8016
    -3.7825  -3.7825  -3.7062  -3.7062  -3.6999  -3.6999  -3.6576  -3.6576
    -3.5969  -3.5969  -3.5626  -3.5626  -3.4787  -3.4787  -3.4606  -3.4606
    -3.4508  -3.4508  -3.3905  -3.3905  -3.3287  -3.3287  -3.2233  -3.2233
    -3.1960  -3.1960  -3.1584  -3.1584  -3.0979  -3.0979  -3.0068  -3.0068
    -2.9905  -2.9905  -2.9817  -2.9817  -2.9563  -2.9563  -2.9468  -2.9468
    -2.9387  -2.9387  -2.9182  -2.9182  -2.8984  -2.8984  -2.8877  -2.8877
    -2.8631  -2.8631  -2.8571  -2.8571  -2.8486  -2.8486  -2.8196  -2.8196
    -2.8020  -2.8020  -2.7891  -2.7891  -2.7686  -2.7686  -2.7533  -2.7533
    -2.7403  -2.7403  -2.7028  -2.7028  -2.6745  -2.6745  -2.6365  -2.6365
    -2.6277  -2.6277  -2.6128  -2.6128  -2.6042  -2.6042  -2.5767  -2.5767
    -2.5527  -2.5527  -2.5405  -2.5405  -2.5153  -2.5153  -2.4706  -2.4706
    -2.3717  -2.3717  -2.2974  -2.2974  -2.2150  -2.2150  -2.2051  -2.2051
    -2.1639  -2.1639  -2.1393  -2.1393  -2.1014  -2.1014  -2.0238  -2.0238
    -2.0187  -2.0187  -2.0170  -2.0170  -1.9888  -1.9888  -1.9356  -1.9356
    -1.9037  -1.9037  -1.8674  -1.8674  -1.8475  -1.8475  -1.8326  -1.8326
    -1.8088  -1.8088  -1.7656  -1.7656  -1.7032  -1.7032  -1.7000  -1.7000
    -1.6858  -1.6858  -1.6073  -1.6073  -1.5782  -1.5782  -1.5581  -1.5581
    -1.5516  -1.5516  -1.4901  -1.4901  -1.4696  -1.4696  -1.4299  -1.4299
    -1.3898  -1.3898  -1.2877  -1.2877  -1.2649  -1.2649  -1.2032  -1.2032
    -0.8096  -0.8096  -0.8035  -0.8035

          k =-0.2500 0.4330 0.0000 ( 81978 PWs)   bands (ev):

   -62.1145 -62.1145 -62.1097 -62.1097 -62.1093 -62.1093 -62.0985 -62.0985
   -62.0981 -62.0981 -62.0932 -62.0932 -61.9926 -61.9926 -61.9891 -61.9891
   -61.9879 -61.9879 -61.9815 -61.9815 -61.9700 -61.9700 -61.9693 -61.9693
   -61.9623 -61.9623 -61.9600 -61.9600 -61.9584 -61.9584 -61.9578 -61.9578
   -61.9532 -61.9532 -61.9526 -61.9526 -61.9383 -61.9383 -61.9373 -61.9373
   -61.9369 -61.9369 -61.9313 -61.9313 -61.9309 -61.9309 -61.9303 -61.9303
   -37.9672 -37.9670 -37.9550 -37.9549 -37.9547 -37.9545 -37.9304 -37.9303
   -37.9288 -37.9288 -37.9174 -37.9172 -37.8479 -37.8475 -37.8441 -37.8427
   -37.8394 -37.8392 -37.8364 -37.8362 -37.8265 -37.8248 -37.8239 -37.8230
   -37.8207 -37.8203 -37.8191 -37.8169 -37.8156 -37.8105 -37.8049 -37.8017
   -37.7941 -37.7893 -37.7866 -37.7865 -37.7825 -37.7824 -37.7773 -37.7766
   -37.7716 -37.7698 -37.7471 -37.7453 -37.7357 -37.7349 -37.7289 -37.7286
   -35.5508 -35.5507 -35.5485 -35.5484 -35.5476 -35.5464 -35.5074 -35.5072
   -35.5058 -35.5045 -35.4894 -35.4892 -35.4680 -35.4665 -35.4655 -35.4623
   -35.4582 -35.4558 -35.4366 -35.4356 -35.4297 -35.4297 -35.4237 -35.4235
   -35.4197 -35.4177 -35.4166 -35.4120 -35.4112 -35.4076 -35.4053 -35.4034
   -35.3938 -35.3927 -35.3897 -35.3849 -35.3826 -35.3816 -35.3788 -35.3741
   -35.3704 -35.3651 -35.3641 -35.3603 -35.3540 -35.3471 -35.3439 -35.3362
   -35.3352 -35.3283 -35.3229 -35.3223 -35.3212 -35.3204 -35.3094 -35.3090
   -35.3067 -35.3033 -35.2987 -35.2970 -35.2924 -35.2898 -35.2851 -35.2831
   -35.2826 -35.2812 -35.2794 -35.2783 -35.2730 -35.2727 -35.2712 -35.2708
   -35.2670 -35.2666 -35.2640 -35.2637 -35.2615 -35.2602 -35.2593 -35.2581
   -35.2519 -35.2513 -35.2469 -35.2467 -35.2454 -35.2445 -35.2423 -35.2371
   -35.2353 -35.2346 -35.2091 -35.2023 -35.1838 -35.1809 -35.1669 -35.1658
   -15.1055 -15.1050 -14.9882 -14.9869 -14.8828 -14.8821 -14.5781 -14.5715
   -14.5155 -14.5101 -14.3157 -14.3072 -14.2521 -14.2459 -14.1469 -14.1394
   -14.0302 -14.0171 -14.0042 -13.9931 -13.9300 -13.9212 -13.8704 -13.8704
   -13.8194 -13.8193 -13.7749 -13.7739 -13.7584 -13.7584 -13.6445 -13.6440
   -13.6161 -13.6158 -13.5783 -13.5730 -13.5527 -13.5452 -13.5389 -13.5385
   -13.5377 -13.5191 -13.5189 -13.5167 -13.4615 -13.4610 -13.4298 -13.4287
   -13.4277 -13.4250 -13.4156 -13.4151 -13.4138 -13.4123 -13.3890 -13.3885
   -13.3733 -13.3728 -13.3698 -13.3692 -13.3154 -13.3011 -13.3009 -13.2886
   -13.2771 -13.2514 -13.2496 -13.2454 -13.2450 -13.2434 -13.2239 -13.2187
   -13.2169 -13.1897 -13.1891 -13.1875 -13.1861 -13.1846 -13.1792 -13.1783
   -13.1685 -13.1675 -13.1287 -13.1264 -13.1028 -13.1000 -13.0660 -13.0633
   -12.9013 -12.8982 -12.7619 -12.7618 -12.7239 -12.7175 -12.7114 -12.7014
   -12.4213 -12.4210 -12.4197 -12.4194  -6.8291  -6.8221  -6.8033  -6.7966
    -6.7362  -6.7233  -6.6040  -6.6032  -6.5735  -6.5687  -6.5163  -6.5051
    -6.4880  -6.4853  -6.4847  -6.4791  -6.4790  -6.4767  -6.4602  -6.4509
    -6.3844  -6.3833  -6.3523  -6.3512  -6.3220  -6.3205  -6.3083  -6.2993
    -6.2952  -6.2942  -6.2584  -6.2583  -6.2324  -6.2315  -6.2295  -6.2225
    -6.1916  -6.1904  -6.1858  -6.1813  -6.1538  -6.1527  -6.1320  -6.1251
    -6.0938  -6.0860  -6.0461  -6.0393  -6.0161  -6.0119  -6.0112  -6.0093
    -5.9868  -5.9838  -5.9443  -5.9407  -5.9038  -5.9009  -5.8830  -5.8823
    -5.8639  -5.8608  -5.8076  -5.8020  -5.8013  -5.7997  -5.7708  -5.7650
    -5.7184  -5.7108  -5.6988  -5.6913  -5.6349  -5.6185  -5.4947  -5.4890
    -5.2228  -5.2163  -5.1699  -5.1694  -5.1648  -5.1637  -5.1486  -5.1428
    -5.1188  -5.1075  -5.1001  -5.0747  -5.0630  -5.0517  -5.0382  -5.0354
    -5.0255  -5.0203  -5.0174  -5.0128  -5.0108  -5.0069  -4.9948  -4.9896
    -4.9814  -4.9774  -4.9690  -4.9656  -4.9506  -4.9494  -4.9283  -4.9259
    -4.9146  -4.9081  -4.8937  -4.8919  -4.8478  -4.8419  -4.8218  -4.8213
    -4.8179  -4.8140  -4.8099  -4.8052  -4.7874  -4.7833  -4.7681  -4.7636
    -4.6509  -4.6438  -4.6070  -4.5992  -4.5494  -4.5237  -4.4491  -4.4346
    -4.4140  -4.4108  -4.3858  -4.3851  -4.3774  -4.3710  -4.3615  -4.3506
    -4.3413  -4.3392  -4.3333  -4.3262  -4.3211  -4.3207  -4.3079  -4.3066
    -4.3034  -4.2962  -4.2935  -4.2876  -4.2763  -4.2759  -4.2743  -4.2636
    -4.2560  -4.2555  -4.2359  -4.2330  -4.2166  -4.2078  -4.2020  -4.1918
    -4.1727  -4.1702  -4.1633  -4.1584  -4.1249  -4.1238  -4.1098  -4.1097
    -4.0652  -4.0611  -4.0179  -4.0151  -4.0054  -4.0013  -3.9581  -3.9512
    -3.9452  -3.9254  -3.9167  -3.9088  -3.8364  -3.8336  -3.8325  -3.8162
    -3.8064  -3.7931  -3.7680  -3.7664  -3.7501  -3.7471  -3.6807  -3.6770
    -3.5963  -3.5866  -3.4446  -3.4409  -3.4322  -3.4217  -3.3971  -3.3784
    -3.3536  -3.3449  -3.3192  -3.3118  -3.2568  -3.2533  -3.2531  -3.2008
    -3.1939  -3.1909  -3.1679  -3.1556  -3.1443  -3.1289  -3.1225  -3.0929
    -3.0331  -3.0046  -3.0041  -3.0018  -2.9869  -2.9858  -2.9811  -2.9790
    -2.9778  -2.9728  -2.9712  -2.9653  -2.9310  -2.9303  -2.9097  -2.8932
    -2.8896  -2.8787  -2.8760  -2.8688  -2.8611  -2.8577  -2.8403  -2.8358
    -2.8056  -2.8038  -2.7985  -2.7863  -2.7747  -2.7683  -2.7576  -2.7436
    -2.7213  -2.7198  -2.6938  -2.6765  -2.6746  -2.6500  -2.6448  -2.6376
    -2.6291  -2.6262  -2.6168  -2.6109  -2.6025  -2.5854  -2.5800  -2.5553
    -2.5535  -2.5330  -2.4561  -2.4443  -2.4204  -2.4074  -2.3967  -2.3897
    -2.3799  -2.3670  -2.3242  -2.3111  -2.2999  -2.2397  -2.2359  -2.2299
    -2.1970  -2.1464  -2.1434  -2.1388  -2.1227  -2.1196  -2.0597  -2.0461
    -2.0377  -2.0325  -2.0206  -2.0049  -1.9864  -1.9843  -1.9494  -1.9473
    -1.9332  -1.9120  -1.8889  -1.8726  -1.8518  -1.8349  -1.8196  -1.7911
    -1.7754  -1.7711  -1.7373  -1.7333  -1.7210  -1.6962  -1.6912  -1.6762
    -1.6677  -1.6634  -1.6577  -1.6285  -1.5974  -1.5891  -1.5774  -1.5730
    -1.5638  -1.5265  -1.5206  -1.5039  -1.4856  -1.4381  -1.4351  -1.4190
    -1.3895  -1.3548  -1.3180  -1.2862  -1.2809  -1.2271  -1.2059  -1.2011
    -0.8144  -0.8061  -0.8050  -0.8018

          k = 0.5000 0.0000 0.0000 ( 81978 PWs)   bands (ev):

   -62.1145 -62.1145 -62.1097 -62.1097 -62.1093 -62.1093 -62.0985 -62.0985
   -62.0981 -62.0981 -62.0932 -62.0932 -61.9926 -61.9926 -61.9891 -61.9891
   -61.9879 -61.9879 -61.9815 -61.9815 -61.9699 -61.9699 -61.9693 -61.9693
   -61.9623 -61.9623 -61.9600 -61.9600 -61.9585 -61.9585 -61.9576 -61.9576
   -61.9531 -61.9531 -61.9527 -61.9527 -61.9383 -61.9383 -61.9373 -61.9373
   -61.9370 -61.9370 -61.9314 -61.9314 -61.9307 -61.9307 -61.9304 -61.9304
   -37.9672 -37.9670 -37.9550 -37.9549 -37.9547 -37.9545 -37.9305 -37.9303
   -37.9288 -37.9287 -37.9174 -37.9172 -37.8478 -37.8475 -37.8440 -37.8428
   -37.8399 -37.8395 -37.8360 -37.8359 -37.8265 -37.8248 -37.8233 -37.8228
   -37.8212 -37.8204 -37.8193 -37.8168 -37.8155 -37.8106 -37.8051 -37.8020
   -37.7943 -37.7894 -37.7860 -37.7857 -37.7825 -37.7824 -37.7774 -37.7767
   -37.7720 -37.7700 -37.7472 -37.7454 -37.7355 -37.7347 -37.7290 -37.7287
   -35.5505 -35.5503 -35.5489 -35.5489 -35.5472 -35.5465 -35.5080 -35.5070
   -35.5052 -35.5047 -35.4894 -35.4891 -35.4684 -35.4669 -35.4650 -35.4618
   -35.4582 -35.4558 -35.4366 -35.4353 -35.4296 -35.4296 -35.4235 -35.4235
   -35.4192 -35.4176 -35.4168 -35.4125 -35.4112 -35.4077 -35.4057 -35.4036
   -35.3941 -35.3928 -35.3895 -35.3848 -35.3828 -35.3819 -35.3783 -35.3738
   -35.3702 -35.3654 -35.3640 -35.3606 -35.3539 -35.3471 -35.3439 -35.3360
   -35.3354 -35.3281 -35.3232 -35.3225 -35.3206 -35.3202 -35.3096 -35.3086
   -35.3067 -35.3031 -35.2986 -35.2971 -35.2918 -35.2901 -35.2854 -35.2840
   -35.2829 -35.2810 -35.2793 -35.2783 -35.2728 -35.2728 -35.2710 -35.2706
   -35.2668 -35.2664 -35.2641 -35.2638 -35.2615 -35.2605 -35.2591 -35.2581
   -35.2517 -35.2514 -35.2472 -35.2470 -35.2449 -35.2444 -35.2422 -35.2373
   -35.2354 -35.2345 -35.2091 -35.2025 -35.1835 -35.1808 -35.1670 -35.1659
   -15.1055 -15.1050 -14.9881 -14.9868 -14.8829 -14.8822 -14.5781 -14.5715
   -14.5156 -14.5102 -14.3158 -14.3072 -14.2519 -14.2457 -14.1469 -14.1393
   -14.0303 -14.0171 -14.0043 -13.9932 -13.9300 -13.9212 -13.8705 -13.8704
   -13.8193 -13.8192 -13.7749 -13.7739 -13.7585 -13.7585 -13.6445 -13.6440
   -13.6162 -13.6159 -13.5785 -13.5732 -13.5528 -13.5454 -13.5390 -13.5385
   -13.5377 -13.5188 -13.5187 -13.5168 -13.4614 -13.4609 -13.4298 -13.4288
   -13.4277 -13.4249 -13.4157 -13.4153 -13.4134 -13.4117 -13.3890 -13.3885
   -13.3733 -13.3728 -13.3698 -13.3692 -13.3155 -13.3009 -13.3008 -13.2887
   -13.2772 -13.2514 -13.2495 -13.2457 -13.2451 -13.2437 -13.2240 -13.2190
   -13.2173 -13.1896 -13.1889 -13.1872 -13.1855 -13.1842 -13.1790 -13.1780
   -13.1689 -13.1678 -13.1287 -13.1264 -13.1028 -13.1001 -13.0660 -13.0633
   -12.9014 -12.8983 -12.7619 -12.7618 -12.7238 -12.7172 -12.7117 -12.7015
   -12.4212 -12.4208 -12.4200 -12.4196  -6.8291  -6.8221  -6.8033  -6.7966
    -6.7362  -6.7233  -6.6040  -6.6033  -6.5733  -6.5686  -6.5163  -6.5051
    -6.4881  -6.4854  -6.4848  -6.4791  -6.4789  -6.4766  -6.4604  -6.4511
    -6.3846  -6.3835  -6.3523  -6.3513  -6.3219  -6.3204  -6.3082  -6.2992
    -6.2948  -6.2938  -6.2584  -6.2583  -6.2325  -6.2316  -6.2295  -6.2227
    -6.1918  -6.1906  -6.1859  -6.1813  -6.1539  -6.1529  -6.1318  -6.1249
    -6.0939  -6.0860  -6.0459  -6.0390  -6.0160  -6.0117  -6.0111  -6.0091
    -5.9866  -5.9836  -5.9447  -5.9412  -5.9039  -5.9010  -5.8831  -5.8823
    -5.8641  -5.8609  -5.8075  -5.8020  -5.8012  -5.7997  -5.7705  -5.7648
    -5.7183  -5.7106  -5.6991  -5.6916  -5.6350  -5.6186  -5.4947  -5.4890
    -5.2227  -5.2162  -5.1699  -5.1694  -5.1649  -5.1638  -5.1486  -5.1428
    -5.1188  -5.1076  -5.1001  -5.0747  -5.0631  -5.0518  -5.0382  -5.0353
    -5.0254  -5.0202  -5.0174  -5.0128  -5.0109  -5.0069  -4.9949  -4.9896
    -4.9812  -4.9773  -4.9691  -4.9657  -4.9506  -4.9494  -4.9283  -4.9258
    -4.9144  -4.9079  -4.8938  -4.8921  -4.8479  -4.8420  -4.8218  -4.8213
    -4.8178  -4.8140  -4.8100  -4.8054  -4.7874  -4.7833  -4.7682  -4.7636
    -4.6508  -4.6437  -4.6068  -4.5990  -4.5494  -4.5237  -4.4491  -4.4345
    -4.4141  -4.4109  -4.3858  -4.3853  -4.3775  -4.3710  -4.3614  -4.3503
    -4.3413  -4.3393  -4.3332  -4.3260  -4.3212  -4.3206  -4.3081  -4.3067
    -4.3035  -4.2961  -4.2935  -4.2875  -4.2762  -4.2761  -4.2744  -4.2634
    -4.2559  -4.2554  -4.2359  -4.2332  -4.2165  -4.2079  -4.2021  -4.1919
    -4.1726  -4.1703  -4.1633  -4.1584  -4.1250  -4.1238  -4.1096  -4.1096
    -4.0651  -4.0611  -4.0180  -4.0151  -4.0054  -4.0013  -3.9581  -3.9512
    -3.9452  -3.9253  -3.9167  -3.9088  -3.8364  -3.8336  -3.8325  -3.8162
    -3.8064  -3.7931  -3.7681  -3.7664  -3.7500  -3.7470  -3.6809  -3.6771
    -3.5963  -3.5867  -3.4446  -3.4408  -3.4321  -3.4216  -3.3972  -3.3784
    -3.3537  -3.3450  -3.3193  -3.3120  -3.2568  -3.2535  -3.2531  -3.2008
    -3.1939  -3.1909  -3.1681  -3.1556  -3.1443  -3.1290  -3.1222  -3.0926
    -3.0331  -3.0046  -3.0042  -3.0018  -2.9869  -2.9858  -2.9812  -2.9791
    -2.9778  -2.9728  -2.9712  -2.9653  -2.9308  -2.9302  -2.9097  -2.8930
    -2.8894  -2.8786  -2.8759  -2.8687  -2.8610  -2.8577  -2.8401  -2.8360
    -2.8054  -2.8036  -2.7985  -2.7863  -2.7748  -2.7684  -2.7578  -2.7436
    -2.7214  -2.7199  -2.6938  -2.6764  -2.6747  -2.6501  -2.6447  -2.6377
    -2.6290  -2.6263  -2.6171  -2.6109  -2.6025  -2.5859  -2.5800  -2.5553
    -2.5535  -2.5329  -2.4560  -2.4442  -2.4204  -2.4073  -2.3967  -2.3896
    -2.3797  -2.3670  -2.3242  -2.3111  -2.2999  -2.2397  -2.2358  -2.2298
    -2.1969  -2.1464  -2.1434  -2.1388  -2.1227  -2.1196  -2.0598  -2.0461
    -2.0378  -2.0325  -2.0206  -2.0047  -1.9865  -1.9845  -1.9493  -1.9472
    -1.9333  -1.9117  -1.8889  -1.8726  -1.8518  -1.8347  -1.8196  -1.7913
    -1.7754  -1.7712  -1.7374  -1.7334  -1.7207  -1.6960  -1.6911  -1.6764
    -1.6674  -1.6631  -1.6578  -1.6288  -1.5975  -1.5893  -1.5773  -1.5730
    -1.5637  -1.5267  -1.5202  -1.5040  -1.4857  -1.4381  -1.4348  -1.4190
    -1.3895  -1.3548  -1.3183  -1.2862  -1.2808  -1.2271  -1.2059  -1.2012
    -0.8145  -0.8059  -0.8052  -0.8016

     highest occupied level (ev):    -0.8016

     Writing output data file unfold.save/
 
     init_run     :      9.55s CPU     11.67s WALL (       1 calls)
     electrons    :   1232.65s CPU   1260.12s WALL (       1 calls)

     Called by init_run:
     wfcinit      :      0.00s CPU      0.01s WALL (       1 calls)
     potinit      :      2.71s CPU      2.83s WALL (       1 calls)
     hinit0       :      6.63s CPU      8.60s WALL (       1 calls)

     Called by electrons:
     c_bands      :   1232.65s CPU   1260.12s WALL (       1 calls)
     v_of_rho     :      0.04s CPU      0.04s WALL (       1 calls)

     Called by c_bands:
     init_us_2    :      0.08s CPU      0.09s WALL (      10 calls)
     cegterg      :   1200.22s CPU   1226.65s WALL (      21 calls)

     Called by sum_band:

     Called by *egterg:
     h_psi        :    548.40s CPU    561.97s WALL (     388 calls)
     g_psi        :      1.53s CPU      1.54s WALL (     357 calls)
     cdiaghg      :    261.68s CPU    268.75s WALL (     367 calls)

     Called by h_psi:
     h_psi:pot    :    546.53s CPU    559.73s WALL (     388 calls)
     h_psi:calbec :     89.65s CPU     91.70s WALL (     388 calls)
     vloc_psi     :    367.22s CPU    376.31s WALL (     388 calls)
     add_vuspsi   :     89.65s CPU     91.72s WALL (     388 calls)

     General routines
     calbec       :     89.65s CPU     91.69s WALL (     388 calls)
     fft          :      6.47s CPU      8.44s WALL (      13 calls)
     fftw         :    355.36s CPU    364.19s WALL (  595476 calls)
 
     Parallel routines
     fft_scatt_xy :     10.19s CPU     10.47s WALL (  595489 calls)
     fft_scatt_yz :    292.78s CPU    302.14s WALL (  595489 calls)
 
     PWSCF        :  21m30.02s CPU  22m29.83s WALL

 
   This run was terminated on:  15: 7: 9   9Jun2021            

=------------------------------------------------------------------------------=
   JOB DONE.
=------------------------------------------------------------------------------=
