------------------------------------------------------------
          Invoking FHI-aims ...

          When using FHI-aims, please cite the following reference:

            Volker Blum, Ralf Gehrke, Felix Hanke, Paula Havu,
            Ville Havu, Xinguo Ren, Karsten Reuter, and Matthias Scheffler,
            'Ab Initio Molecular Simulations with Numeric Atom-Centered Orbitals',
            Computer Physics Communications 180, 2175-2196 (2009)

          In addition, many other developments in FHI-aims are likely important for
          your particular application. A partial list of references is given at the end of
          this file. Thank you for giving credit to the authors of these developments.

          For any questions about FHI-aims, please visit our slack channel at

            https://fhi-aims.slack.com

          and our main development and support site at

            https://aims-git.rz-berlin.mpg.de .

          The latter site, in particular, has a wiki to collect information, as well
          as an issue tracker to log discussions, suggest improvements, and report issues
          or bugs. https://aims-git.rz-berlin.mpg.de is also the main development site
          of the project and all new and updated code versions can be obtained there.
          Please send an email to aims-coordinators@fhi-berlin.mpg.de and we will add
          you to these sites. They are for you and everyone is welcome there.

------------------------------------------------------------



  Date     :  20211123, Time     :  090825.843
  Time zero on CPU 1             :   0.233052000000000E+00  s.
  Internal wall clock time zero  :           406890505.843  s.

  FHI-aims created a unique identifier for this run for later identification
  aims_uuid : 73B3EF92-AF0B-43B8-A191-7CF8423BE8AC

  Build configuration of the current instance of FHI-aims
  -------------------------------------------------------
  FHI-aims version      : 210513
  Commit number         : 1a2d0b161
  CMake host system     : Linux-4.12.14-122.63-default
  CMake version         : 3.5.2
  Fortran compiler      : /mpcdf/soft/SLE_12/packages/x86_64/intel_parallel_studio/2020.1/compilers_and_libraries_2020.1.217/linux/mpi/intel64/bin/mpiifort (Intel) version 19.1.0.20200306
  Fortran compiler flags: -O3 -ip -fp-model precise
  C compiler            : /mpcdf/soft/SLE_12/packages/x86_64/intel/19.1.1/bin/icc (Intel) version 19.1.0.20200306
  C compiler flags      : -O3 -ip -fp-model precise -std=gnu99
  C++ compiler          : /mpcdf/soft/SLE_12/packages/x86_64/intel/19.1.1/bin/icpc (Intel) version 19.1.0.20200306
  C++ compiler flags    : -O3 -ip -fp-model precise -std=gnu99
  Using MPI
  Using ScaLAPACK
  Using LibXC
  Using i-PI
  Using RLSY
  Linking against: /mpcdf/soft/SLE_12/packages/x86_64/intel_parallel_studio/2020.1/mkl/lib/intel64/libmkl_intel_lp64.so
                   /mpcdf/soft/SLE_12/packages/x86_64/intel_parallel_studio/2020.1/mkl/lib/intel64/libmkl_sequential.so
                   /mpcdf/soft/SLE_12/packages/x86_64/intel_parallel_studio/2020.1/mkl/lib/intel64/libmkl_core.so
                   /mpcdf/soft/SLE_12/packages/x86_64/intel_parallel_studio/2020.1/mkl/lib/intel64/libmkl_blacs_intelmpi_lp64.so
                   /mpcdf/soft/SLE_12/packages/x86_64/intel_parallel_studio/2020.1/mkl/lib/intel64/libmkl_scalapack_lp64.so

  Using      160 parallel tasks.
  Task        0 on host co1561 reporting.
  Task        1 on host co1561 reporting.
  Task        2 on host co1561 reporting.
  Task        3 on host co1561 reporting.
  Task        4 on host co1561 reporting.
  Task        5 on host co1561 reporting.
  Task        6 on host co1561 reporting.
  Task        7 on host co1561 reporting.
  Task        8 on host co1561 reporting.
  Task        9 on host co1561 reporting.
  Task       10 on host co1561 reporting.
  Task       11 on host co1561 reporting.
  Task       12 on host co1561 reporting.
  Task       13 on host co1561 reporting.
  Task       14 on host co1561 reporting.
  Task       15 on host co1561 reporting.
  Task       16 on host co1561 reporting.
  Task       17 on host co1561 reporting.
  Task       18 on host co1561 reporting.
  Task       19 on host co1561 reporting.
  Task       20 on host co1561 reporting.
  Task       21 on host co1561 reporting.
  Task       22 on host co1561 reporting.
  Task       23 on host co1561 reporting.
  Task       24 on host co1561 reporting.
  Task       25 on host co1561 reporting.
  Task       26 on host co1561 reporting.
  Task       27 on host co1561 reporting.
  Task       28 on host co1561 reporting.
  Task       29 on host co1561 reporting.
  Task       30 on host co1561 reporting.
  Task       31 on host co1561 reporting.
  Task       32 on host co1561 reporting.
  Task       33 on host co1561 reporting.
  Task       34 on host co1561 reporting.
  Task       35 on host co1561 reporting.
  Task       36 on host co1561 reporting.
  Task       37 on host co1561 reporting.
  Task       38 on host co1561 reporting.
  Task       39 on host co1561 reporting.
  Task       40 on host co1562 reporting.
  Task       41 on host co1562 reporting.
  Task       42 on host co1562 reporting.
  Task       43 on host co1562 reporting.
  Task       44 on host co1562 reporting.
  Task       45 on host co1562 reporting.
  Task       46 on host co1562 reporting.
  Task       47 on host co1562 reporting.
  Task       48 on host co1562 reporting.
  Task       49 on host co1562 reporting.
  Task       50 on host co1562 reporting.
  Task       51 on host co1562 reporting.
  Task       52 on host co1562 reporting.
  Task       53 on host co1562 reporting.
  Task       54 on host co1562 reporting.
  Task       55 on host co1562 reporting.
  Task       56 on host co1562 reporting.
  Task       57 on host co1562 reporting.
  Task       58 on host co1562 reporting.
  Task       59 on host co1562 reporting.
  Task       60 on host co1562 reporting.
  Task       61 on host co1562 reporting.
  Task       62 on host co1562 reporting.
  Task       63 on host co1562 reporting.
  Task       64 on host co1562 reporting.
  Task       65 on host co1562 reporting.
  Task       66 on host co1562 reporting.
  Task       67 on host co1562 reporting.
  Task       68 on host co1562 reporting.
  Task       69 on host co1562 reporting.
  Task       70 on host co1562 reporting.
  Task       71 on host co1562 reporting.
  Task       72 on host co1562 reporting.
  Task       73 on host co1562 reporting.
  Task       74 on host co1562 reporting.
  Task       75 on host co1562 reporting.
  Task       76 on host co1562 reporting.
  Task       77 on host co1562 reporting.
  Task       78 on host co1562 reporting.
  Task       79 on host co1562 reporting.
  Task       80 on host co1566 reporting.
  Task       81 on host co1566 reporting.
  Task       82 on host co1566 reporting.
  Task       83 on host co1566 reporting.
  Task       84 on host co1566 reporting.
  Task       85 on host co1566 reporting.
  Task       86 on host co1566 reporting.
  Task       87 on host co1566 reporting.
  Task       88 on host co1566 reporting.
  Task       89 on host co1566 reporting.
  Task       90 on host co1566 reporting.
  Task       91 on host co1566 reporting.
  Task       92 on host co1566 reporting.
  Task       93 on host co1566 reporting.
  Task       94 on host co1566 reporting.
  Task       95 on host co1566 reporting.
  Task       96 on host co1566 reporting.
  Task       97 on host co1566 reporting.
  Task       98 on host co1566 reporting.
  Task       99 on host co1566 reporting.
  Task      100 on host co1566 reporting.
  Task      101 on host co1566 reporting.
  Task      102 on host co1566 reporting.
  Task      103 on host co1566 reporting.
  Task      104 on host co1566 reporting.
  Task      105 on host co1566 reporting.
  Task      106 on host co1566 reporting.
  Task      107 on host co1566 reporting.
  Task      108 on host co1566 reporting.
  Task      109 on host co1566 reporting.
  Task      110 on host co1566 reporting.
  Task      111 on host co1566 reporting.
  Task      112 on host co1566 reporting.
  Task      113 on host co1566 reporting.
  Task      114 on host co1566 reporting.
  Task      115 on host co1566 reporting.
  Task      116 on host co1566 reporting.
  Task      117 on host co1566 reporting.
  Task      118 on host co1566 reporting.
  Task      119 on host co1566 reporting.
  Task      120 on host co1616 reporting.
  Task      121 on host co1616 reporting.
  Task      122 on host co1616 reporting.
  Task      123 on host co1616 reporting.
  Task      124 on host co1616 reporting.
  Task      125 on host co1616 reporting.
  Task      126 on host co1616 reporting.
  Task      127 on host co1616 reporting.
  Task      128 on host co1616 reporting.
  Task      129 on host co1616 reporting.
  Task      130 on host co1616 reporting.
  Task      131 on host co1616 reporting.
  Task      132 on host co1616 reporting.
  Task      133 on host co1616 reporting.
  Task      134 on host co1616 reporting.
  Task      135 on host co1616 reporting.
  Task      136 on host co1616 reporting.
  Task      137 on host co1616 reporting.
  Task      138 on host co1616 reporting.
  Task      139 on host co1616 reporting.
  Task      140 on host co1616 reporting.
  Task      141 on host co1616 reporting.
  Task      142 on host co1616 reporting.
  Task      143 on host co1616 reporting.
  Task      144 on host co1616 reporting.
  Task      145 on host co1616 reporting.
  Task      146 on host co1616 reporting.
  Task      147 on host co1616 reporting.
  Task      148 on host co1616 reporting.
  Task      149 on host co1616 reporting.
  Task      150 on host co1616 reporting.
  Task      151 on host co1616 reporting.
  Task      152 on host co1616 reporting.
  Task      153 on host co1616 reporting.
  Task      154 on host co1616 reporting.
  Task      155 on host co1616 reporting.
  Task      156 on host co1616 reporting.
  Task      157 on host co1616 reporting.
  Task      158 on host co1616 reporting.
  Task      159 on host co1616 reporting.

  Performing system and environment tests:
  | Environment variable OMP_NUM_THREADS correctly set to 1.
  | Checking for ScaLAPACK...
  | Testing pdtran()...
  | All pdtran() tests passed.

  Obtaining array dimensions for all initial allocations:
  
  -----------------------------------------------------------------------
  Parsing control.in (first pass over file, find array dimensions only).
  The contents of control.in will be repeated verbatim below
  unless switched off by setting 'verbatim_writeout .false.' .
  in the first line of control.in .
  -----------------------------------------------------------------------
  
  ##### Physical settings  ################
  xc                 hse06  0.5
  hybrid_xc_coeff 0.5
  hse_unit A
  relativistic       atomic_zora scalar
  #elsi_restart read
  # SCF settings
  relax_geometry trm 1E-3
  #relax_unit_cell #full
  use_symmetric_forces .true.
  #vdw_correction_hirshfeld
  occupation_type gaussian       0.01
  # k-grid settings  (to be adjusted)
  k_grid   4 4 1
  #empty_states 8
  use_dipole_correction
  include_spin_orbit non_self_consistent
  
  mixer   pulay
  n_max_pulay        12 # high for metal
  charge_mix_param   0.1 #low for metal
  many_body_dispersion_nl    beta=0.81
  ################################################################################
  #
  #  FHI-aims code project
  # Volker Blum, Fritz Haber Institute Berlin, 2009
  #
  #  Suggested "intermediate" defaults for Mo atom (to be pasted into control.in file)
  #
  #  See https://aaltodoc.aalto.fi/handle/123456789/33620 for the report these
  #  setting are based on
  ################################################################################
    species        Mo
  #     global species definitions
      nucleus             42
      mass                95.94
  #
      l_hartree           6
  #
      cut_pot             4.0  2.0  1.0
      basis_dep_cutoff    1e-4
  #
      radial_base         59 7.0
      radial_multiplier   2
      angular_grids specified
        division   0.3117   50
        division   0.6750  110
        division   1.0351  194
        division   1.2073  302
        division   1.6402  434
  #      division   1.9185  590
  #      division   2.0237  770
  #      division   2.0980  974
  #      division   2.7972 1202
  #      outer_grid  974
        outer_grid  434
  ################################################################################
  #
  #  Definition of "minimal" basis
  #
  ################################################################################
  #     valence basis states
      valence      5  s   1.
      valence      4  p   6.
      valence      4  d   5.
  #     ion occupancy
      ion_occ     5  s   0.
      ion_occ     4  p   6.
      ion_occ     4  d   4.
  ################################################################################
  #
  #  Suggested additional basis functions. For production calculations,
  #  uncomment them one after another (the most important basis functions are
  #  listed first).
  #
  #  Constructed for dimers: 1.675 A, 1.9 A, 2.375 A, 3.00 A, 4.00 A
  #
  ################################################################################
  #  "First tier"  - max. impr. -711.23  meV, min. impr. -21.07 meV
       hydro 4 f 8.4
       hydro 3 d 2.8
       ionic 5 p auto
       for_aux hydro 5 g 12
       ionic 5 s auto
  #  "Second tier" - max. impr. -39.38  meV, min. impr. -2.68 meV
  #     hydro 4 f 12.4
  #     hydro 3 d 3.3
  #     hydro 6 h 17.2
  #     hydro 4 f 7.6
  #     hydro 3 p 3.0
  #     hydro 1 s 0.65
  #  "Third tier"  - max. impr. -5.50 meV, min. impr. -0.47 meV
  #     hydro 4 f 29.2
  #     hydro 5 g 11.2
  #     hydro 3 d 6.8
  #     hydro 6 h 14.8
  #     hydro 2 p 2.3
  #     hydro 4 s 3.8
  #  "Fourth tier"  - max. impr. -0.58 meV, min. impr. -0.19 meV
  #     hydro 5 f 6.8
  #     hydro 5 d 14.8
  #     hydro 6 s 7.8
  #     hydro 5 g 20.8
  #     hydro 5 d 10.4
  #     hydro 5 p 9.8
  #  Further functions - -0.17 meV and below
  #     hydro 5 d 3.2
  ################################################################################
  #
  #  FHI-aims code project
  #  Volker Blum, 2018
  #
  #  Suggested "intermediate" defaults for S atom (to be pasted into control.in file)
  #
  ################################################################################
    species        S
  #     global species definitions
      nucleus             16
      mass                32.065
  #
      l_hartree           6
  #
      cut_pot             4.0          2.0  1.0
      basis_dep_cutoff    1e-4
  #
      radial_base         44 7.0
      radial_multiplier   2
      angular_grids       specified
        division   0.4665  110
        division   0.5810  194
        division   0.7139  302
        division   0.8274  434
  #      division   0.9105  590
  #      division   1.0975  770
  #      division   1.2028  974
  #      outer_grid  974
        outer_grid  434
  ################################################################################
  #
  #  Definition of "minimal" basis
  #
  ################################################################################
  #     valence basis states
      valence      3  s   2.
      valence      3  p   4.
  #     ion occupancy
      ion_occ      3  s   1.
      ion_occ      3  p   3.
  ################################################################################
  #
  #  Suggested additional basis functions. For production calculations,
  #  uncomment them one after another (the most important basis functions are
  #  listed first).
  #
  #  Constructed for dimers: 1.6 A, 1.9 A, 2.5 A, 3.25 A, 4.0 A
  #
  ################################################################################
  #  "First tier" - improvements: -652.81 meV to -45.53 meV
       ionic 3 d auto
       hydro 2 p 1.8
       hydro 4 f 7
       ionic 3 s auto
  #  "Second tier" - improvements: -30.20 meV to -1.74 meV
  #     hydro 4 d 6.2
  for_aux     hydro 5 g 10.8
  #     hydro 4 p 4.9
  #     hydro 5 f 10
  #     hydro 1 s 0.8
  #  "Third tier" - improvements: -1.04 meV to -0.20 meV
  #     hydro 3 d 3.9
  #     hydro 3 d 2.7
  #     hydro 5 g 12
  #     hydro 4 p 10.4
  #     hydro 5 f 12.4
  #     hydro 2 s 1.9
  #  "Fourth tier" - improvements: -0.35 meV to -0.06 meV
  #     hydro 4 d 10.4
  #     hydro 4 p 7.2
  #     hydro 4 d 10
  #     hydro 5 g 19.2
  #     hydro 4 s 12
  
  ################################################################################
  #
  #  FHI-aims code project
  #  Volker Blum, 2018
  #
  #  Suggested "intermediate" defaults for Se atom (to be pasted into control.in file)
  #
  #  For elements 31-35 (Ga-Br), the "intermediate" defaults are currently identical to the "tight"
  #  defaults and are provided for consistency only. In these cases, I believe that the current
  #  "tight" settings cannot be reduced in a simple way.
  #
  ################################################################################
    species        Se
  #     global species definitions
      nucleus             34
      mass                78.96
  #
      l_hartree           6
  #
      cut_pot             4.0          2.0  1.0
      basis_dep_cutoff    1e-4
  #
      radial_base         55 7.0
      radial_multiplier   2
      angular_grids       specified
        division   0.0830  110
        division   0.1357  194
        division   0.7377  302
        division   0.8610  434
  #      division   0.9640  590
  #      division   1.0773  770
  #      division   2.5539  974
  #      outer_grid  974
        outer_grid  434
  ################################################################################
  #
  #  Definition of "minimal" basis
  #
  ################################################################################
  #     valence basis states
      valence      4  s   2.
      valence      4  p   4.
      valence      3  d  10.
  #     ion occupancy
      ion_occ      4  s   1.
      ion_occ      4  p   3.
      ion_occ      3  d  10.
  ################################################################################
  #
  #  Suggested additional basis functions. For production calculations,
  #  uncomment them one after another (the most important basis functions are
  #  listed first).
  #
  #  Constructed for dimers: 1.85 A, 2.15 A, 2.50 A, 3.00 A, 4.00 A
  #
  ################################################################################
  #  "First tier" - improvements: -336.21 meV to -36.85 meV
       hydro 3 d 4.3
       hydro 2 p 1.6
       hydro 4 f 7.2
       ionic 4 s auto
  #  "Second tier" - improvements: -14.39 meV to -1.49 meV
  #     hydro 5 g 10.4
  #     hydro 4 p 4.5
  #     hydro 4 d 6.2
  #     hydro 4 f 11.2
  #     hydro 1 s 0.65
  #     hydro 6 h 15.2
  #  "Third tier" - improvements: -0.46 meV and below
  #     hydro 5 g 14.4
  #     ionic 4 d auto
  #     hydro 4 f 22.4
  #     hydro 5 f 7.4
  #     hydro 5 p 8
  #     hydro 5 s 9.4
  #  "Fourth tier" - improvements: -0.12 meV and below
  #     hydro 5 d 11.6
  #     hydro 6 h 18
  #     hydro 4 p 4
  #     hydro 5 f 16
  #     hydro 4 s 3.9
  
  
  -----------------------------------------------------------------------
  Completed first pass over input file control.in .
  -----------------------------------------------------------------------
  
  
  -----------------------------------------------------------------------
  Parsing geometry.in (first pass over file, find array dimensions only).
  The contents of geometry.in will be repeated verbatim below
  unless switched off by setting 'verbatim_writeout .false.' .
  in the first line of geometry.in .
  -----------------------------------------------------------------------
  
  #
  # This is the geometry file that corresponds to the current relaxation step.
  # If you do not want this file to be written, set the "write_restart_geometry" flag to .false.
  #  aims_uuid : B39DF032-BF27-4FD5-ACFA-040D3A044789
  #
  lattice_vector     16.60000000      0.00000000      0.00000000
  lattice_vector     -8.30000000     14.37602170      0.00000000
  lattice_vector      0.00000000      0.00000000    100.00000000
  atom       0.00677343      0.94591280      2.68045805 Mo
  atom       1.68575842      1.97003895      4.29869597 Se
  atom       1.62004985      1.86862830      0.93045582 Se
  atom      -1.64581231      3.84181130      2.69255490 Mo
  atom       0.14048092      4.87311301      4.28373474 Se
  atom      -0.06700932      4.75335031      0.91790329 Se
  atom      -3.32736206      6.72095269      2.68045805 Mo
  atom      -1.60094592      7.66291334      4.29874293 Se
  atom      -1.72163041      7.65671172      0.93047122 Se
  atom      -4.97999637      9.57480494      2.65833354 Mo
  atom      -3.29612897     10.52861202      4.30311243 Se
  atom      -3.32348561     10.54443368      0.99317918 Se
  atom      -6.64799711     12.46377820      2.65834793 Mo
  atom      -4.97999343     13.44511930      4.30310227 Se
  atom      -4.97998519     13.41348335      0.99319527 Se
  atom       3.32001579      0.99182844      2.62871172 Mo
  atom       4.95426051      1.97004308      4.29870677 Se
  atom       5.01998048      1.86863449      0.93047023 Se
  atom       1.60575632      3.76784096      2.53088182 Mo
  atom       3.32003068      4.94866092      1.32434497 Se
  atom      -0.08404201      6.69478314      2.53090216 Mo
  atom       1.79565865      7.58892479      1.32421581 Se
  atom      -1.63096299      9.56727974      2.62873368 Mo
  atom       0.03326492     10.49346172      4.29875627 Se
  atom      -0.02169025     10.60110994      0.93047999 Se
  atom      -3.31199553     12.46377826      2.65835800 Mo
  atom      -1.67096748     13.41128677      4.34878729 Se
  atom      -1.65165742     13.42239976      1.00077788 Se
  atom       6.63321975      0.94591306      2.68047651 Mo
  atom       8.27130231      1.92779018      4.36454351 Se
  atom       8.32390009      1.91445676      1.04556521 Se
  atom       5.03426571      3.76784719      2.53090723 Mo
  atom       6.49952360      4.87307901      4.28376270 Se
  atom       6.70701576      4.75330651      0.91790145 Se
  atom       4.84437660      7.58890954      1.32423325 Se
  atom       1.63013980      9.66379938      2.53093615 Mo
  atom       3.31997316     10.38016120      4.28377619 Se
  atom       3.31996569     10.61983966      0.91794085 Se
  atom      -0.01420566     12.45956026      2.68050310 Mo
  atom       1.65513777     13.38733810      4.36456201 Se
  atom       1.66992027     13.43949717      1.04559620 Se
  atom       9.95966966      0.95824868      2.72823252 Mo
  atom      11.61999301      1.91685265      4.40042603 Se
  atom      11.61998518      1.91681392      1.06903595 Se
  atom       8.28578660      3.84179524      2.69256822 Mo
  atom       9.93613624      4.81138505      4.36451128 Se
  atom       9.97395009      4.77247989      1.04556346 Se
  atom       6.72402936      6.69469847      2.53091220 Mo
  atom       8.24095572      7.66287656      4.29873131 Se
  atom       8.36163573      7.65667220      0.93047046 Se
  atom       5.00979794      9.66381567      2.53092050 Mo
  atom       6.60672153     10.49347486      4.29873388 Se
  atom       6.66167953     10.60111180      0.93046503 Se
  atom       3.31997375     12.44288167      2.69261545 Mo
  atom       4.98484608     13.38733770      4.36454847 Se
  atom       4.97004972     13.43949604      1.04558834 Se
  atom      13.28030246      0.95824710      2.72822231 Mo
  atom      14.96868785      1.92779048      4.36452689 Se
  atom      14.91608633      1.91445945      1.04555221 Se
  atom      11.61998446      3.83399391      2.72820461 Mo
  atom      13.30384971      4.81139059      4.36450834 Se
  atom      13.26602857      4.77249268      1.04555822 Se
  atom       9.96737343      6.72094837      2.68045773 Mo
  atom      11.62000597      7.67987266      4.34874287 Se
  atom      11.62000590      7.65760546      1.00075380 Se
  atom       8.27096898      9.56726500      2.62872430 Mo
  atom       9.93614209     10.52861212      4.30310500 Se
  atom       9.96350416     10.54442741      0.99317272 Se
  atom       6.65420472     12.45957896      2.68048437 Mo
  atom       8.31097385     13.41129074      4.34877483 Se
  atom       8.29166997     13.42239986      1.00075641 Se
  
  -----------------------------------------------------------------------
  Completed first pass over input file geometry.in .
  -----------------------------------------------------------------------
  

  Basic array size parameters:
  | Number of species                 :        3
  | Number of atoms                   :       71
  | Number of lattice vectors         :        3
  | Max. basis fn. angular momentum   :        4
  | Max. atomic/ionic basis occupied n:        5
  | Max. number of basis fn. types    :        3
  | Max. radial fns per species/type  :       10
  | Max. logarithmic grid size        :     1436
  | Max. radial integration grid size :      119
  | Max. angular integration grid size:      434
  | Max. angular grid division number :        8
  | Radial grid for Hartree potential :     1436
  | Number of spin channels           :        1

------------------------------------------------------------
          Reading file control.in.
------------------------------------------------------------

  XC: Using HSE-functional with OMEGA =  0.500000E+00 <units>.
  XC: For the actual units (bohr^-1 or Angstrom^-1), see below.
  hybrid_xc_coeff: Mixing coefficient for hybrid-functional exact exchange modified to         0.50000000 .
  * WARNING: This change modifies the chosen exchange-correlation functional (keyword 'xc')
  * from its literature definition. Be sure to NEVER include such a line in any default control.in files!
  hse_unit: Unit for the HSE06 hybrid functional screening parameter set to A^(-1).
  Scalar relativistic treatment of kinetic energy: on-site free-atom approximation to ZORA.
  Geometry relaxation: Modified BFGS - TRM (trust radius method) for lattice optimization.
  Convergence accuracy for geometry relaxation: Maximum force <   0.100000E-02 eV/A.
  Occupation type: Gaussian broadening, width =   0.100000E-01 eV.
  Found k-point grid:         4         4         1
  Using dipole correction.
  Calculating non-self-consistent second-variational spin-orbit coupling after scf-cycle
  Using pulay charge density mixing.
  Pulay mixing - number of memorized iterations:   12
  Charge density mixing - mixing parameter:     0.1000
  Using libMBD for calculating MBD and TS energies
 
  Reading configuration options for species Mo                  .
  | Found nuclear charge :  42.0000
  | Found atomic mass :    95.9400000000000      amu
  | Found l_max for Hartree potential  :   6
  | Found cutoff potl. onset [A], width [A], scale factor :    4.00000    2.00000    1.00000
  | Threshold for basis-dependent cutoff potential is   0.100000E-03
  | Found data for basic radial integration grid :    59 points, outermost radius =    7.000 A
  | Found multiplier for basic radial grid :   2
  | Found angular grid specification: user-specified.
  | Specified grid contains     6 separate shells.
  | Check grid settings after all constraints further below.
  | Found free-atom valence shell :  5 s   1.000
  | Found free-atom valence shell :  4 p   6.000
  | Found free-atom valence shell :  4 d   5.000
  | Found free-ion valence shell :  5 s   0.000
  | Found free-ion valence shell :  4 p   6.000
  | Found free-ion valence shell :  4 d   4.000
  | Found hydrogenic basis function :  4 f   8.400
  | Found hydrogenic basis function :  3 d   2.800
  | Found ionic basis function :  5 p , default cutoff radius.
  | Found hydrogenic extended basis function :  5 g  12.000
  | Found ionic basis function :  5 s , default cutoff radius.
  Species Mo                  : Missing cutoff potential type.
  Defaulting to exp(1/x)/(1-x)^2 type cutoff potential.
  Species Mo: No 'logarithmic' tag. Using default grid for free atom:
  | Default logarithmic grid data [bohr] : 0.1000E-03 0.1000E+03 0.1012E+01
  | Will include ionic basis functions of  2.0-fold positive Mo                   ion.
  Species Mo: On-site basis accuracy parameter (for Gram-Schmidt orthonormalisation) not specified.
  Using default value basis_acc =  0.1000000E-03.
  Species Mo                  : Using default innermost maximum threshold i_radial=  2 for radial functions.
  Species Mo                  : Default cutoff onset for free atom density etc. : 0.40000000E+01 AA.
  Species Mo                  : Basic radial grid will be enhanced according to radial_multiplier =   2, to contain   119 grid points.
 
  Reading configuration options for species S                   .
  | Found nuclear charge :  16.0000
  | Found atomic mass :    32.0650000000000      amu
  | Found l_max for Hartree potential  :   6
  | Found cutoff potl. onset [A], width [A], scale factor :    4.00000    2.00000    1.00000
  | Threshold for basis-dependent cutoff potential is   0.100000E-03
  | Found data for basic radial integration grid :    44 points, outermost radius =    7.000 A
  | Found multiplier for basic radial grid :   2
  | Found angular grid specification: user-specified.
  | Specified grid contains     5 separate shells.
  | Check grid settings after all constraints further below.
  | Found free-atom valence shell :  3 s   2.000
  | Found free-atom valence shell :  3 p   4.000
  | Found free-ion valence shell :  3 s   1.000
  | Found free-ion valence shell :  3 p   3.000
  | Found ionic basis function :  3 d , default cutoff radius.
  | Found hydrogenic basis function :  2 p   1.800
  | Found hydrogenic basis function :  4 f   7.000
  | Found ionic basis function :  3 s , default cutoff radius.
  | Found hydrogenic extended basis function :  5 g  10.800
  Species S                   : Missing cutoff potential type.
  Defaulting to exp(1/x)/(1-x)^2 type cutoff potential.
  Species S : No 'logarithmic' tag. Using default grid for free atom:
  | Default logarithmic grid data [bohr] : 0.1000E-03 0.1000E+03 0.1012E+01
  | Will include ionic basis functions of  2.0-fold positive S                    ion.
  Species S : On-site basis accuracy parameter (for Gram-Schmidt orthonormalisation) not specified.
  Using default value basis_acc =  0.1000000E-03.
  Species S                   : Using default innermost maximum threshold i_radial=  2 for radial functions.
  Species S                   : Default cutoff onset for free atom density etc. : 0.40000000E+01 AA.
  Species S                   : Basic radial grid will be enhanced according to radial_multiplier =   2, to contain    89 grid points.
 
  Reading configuration options for species Se                  .
  | Found nuclear charge :  34.0000
  | Found atomic mass :    78.9600000000000      amu
  | Found l_max for Hartree potential  :   6
  | Found cutoff potl. onset [A], width [A], scale factor :    4.00000    2.00000    1.00000
  | Threshold for basis-dependent cutoff potential is   0.100000E-03
  | Found data for basic radial integration grid :    55 points, outermost radius =    7.000 A
  | Found multiplier for basic radial grid :   2
  | Found angular grid specification: user-specified.
  | Specified grid contains     5 separate shells.
  | Check grid settings after all constraints further below.
  | Found free-atom valence shell :  4 s   2.000
  | Found free-atom valence shell :  4 p   4.000
  | Found free-atom valence shell :  3 d  10.000
  | Found free-ion valence shell :  4 s   1.000
  | Found free-ion valence shell :  4 p   3.000
  | Found free-ion valence shell :  3 d  10.000
  | Found hydrogenic basis function :  3 d   4.300
  | Found hydrogenic basis function :  2 p   1.600
  | Found hydrogenic basis function :  4 f   7.200
  | Found ionic basis function :  4 s , default cutoff radius.
  Species Se                  : Missing cutoff potential type.
  Defaulting to exp(1/x)/(1-x)^2 type cutoff potential.
  Species Se: No 'logarithmic' tag. Using default grid for free atom:
  | Default logarithmic grid data [bohr] : 0.1000E-03 0.1000E+03 0.1012E+01
  | Will include ionic basis functions of  2.0-fold positive Se                   ion.
  Species Se: On-site basis accuracy parameter (for Gram-Schmidt orthonormalisation) not specified.
  Using default value basis_acc =  0.1000000E-03.
  Species Se                  : Using default innermost maximum threshold i_radial=  2 for radial functions.
  Species Se                  : Default cutoff onset for free atom density etc. : 0.40000000E+01 AA.
  Species Se                  : Basic radial grid will be enhanced according to radial_multiplier =   2, to contain   111 grid points.
 
  Finished reading input file 'control.in'.
 
------------------------------------------------------------


------------------------------------------------------------
          Reading geometry description geometry.in.
------------------------------------------------------------
  | The smallest distance between any two atoms is         2.40596655 AA.
  | The first atom of this pair is atom number                     22 .
  | The second atom of this pair is atom number                    36 .
  | Wigner-Seitz cell of the first atom image           0     0     0 .
  | (The Wigner-Seitz cell of the second atom is 0 0 0  by definition.)

  Symmetry information by spglib:
  | Precision set to  0.1E-04
  | Number of Operations  : 1
  | Space group           : 1
  | International         : P1      3 7
  | Schoenflies           : C1^1
  Input structure read successfully.
  The structure contains       71 atoms,  and a total of       2606.000 electrons.

  Input geometry:
  | Unit cell:
  |       16.60000000        0.00000000        0.00000000
  |       -8.30000000       14.37602170        0.00000000
  |        0.00000000        0.00000000      100.00000000
  | Atomic structure:
  |       Atom                x [A]            y [A]            z [A]
  |    1: Species Mo            0.00677343        0.94591280        2.68045805
  |    2: Species Se            1.68575842        1.97003895        4.29869597
  |    3: Species Se            1.62004985        1.86862830        0.93045582
  |    4: Species Mo           -1.64581231        3.84181130        2.69255490
  |    5: Species Se            0.14048092        4.87311301        4.28373474
  |    6: Species Se           -0.06700932        4.75335031        0.91790329
  |    7: Species Mo           -3.32736206        6.72095269        2.68045805
  |    8: Species Se           -1.60094592        7.66291334        4.29874293
  |    9: Species Se           -1.72163041        7.65671172        0.93047122
  |   10: Species Mo           -4.97999637        9.57480494        2.65833354
  |   11: Species Se           -3.29612897       10.52861202        4.30311243
  |   12: Species Se           -3.32348561       10.54443368        0.99317918
  |   13: Species Mo           -6.64799711       12.46377820        2.65834793
  |   14: Species Se           -4.97999343       13.44511930        4.30310227
  |   15: Species Se           -4.97998519       13.41348335        0.99319527
  |   16: Species Mo            3.32001579        0.99182844        2.62871172
  |   17: Species Se            4.95426051        1.97004308        4.29870677
  |   18: Species Se            5.01998048        1.86863449        0.93047023
  |   19: Species Mo            1.60575632        3.76784096        2.53088182
  |   20: Species Se            3.32003068        4.94866092        1.32434497
  |   21: Species Mo           -0.08404201        6.69478314        2.53090216
  |   22: Species Se            1.79565865        7.58892479        1.32421581
  |   23: Species Mo           -1.63096299        9.56727974        2.62873368
  |   24: Species Se            0.03326492       10.49346172        4.29875627
  |   25: Species Se           -0.02169025       10.60110994        0.93047999
  |   26: Species Mo           -3.31199553       12.46377826        2.65835800
  |   27: Species Se           -1.67096748       13.41128677        4.34878729
  |   28: Species Se           -1.65165742       13.42239976        1.00077788
  |   29: Species Mo            6.63321975        0.94591306        2.68047651
  |   30: Species Se            8.27130231        1.92779018        4.36454351
  |   31: Species Se            8.32390009        1.91445676        1.04556521
  |   32: Species Mo            5.03426571        3.76784719        2.53090723
  |   33: Species Se            6.49952360        4.87307901        4.28376270
  |   34: Species Se            6.70701576        4.75330651        0.91790145
  |   35: Species Se            4.84437660        7.58890954        1.32423325
  |   36: Species Mo            1.63013980        9.66379938        2.53093615
  |   37: Species Se            3.31997316       10.38016120        4.28377619
  |   38: Species Se            3.31996569       10.61983966        0.91794085
  |   39: Species Mo           -0.01420566       12.45956026        2.68050310
  |   40: Species Se            1.65513777       13.38733810        4.36456201
  |   41: Species Se            1.66992027       13.43949717        1.04559620
  |   42: Species Mo            9.95966966        0.95824868        2.72823252
  |   43: Species Se           11.61999301        1.91685265        4.40042603
  |   44: Species Se           11.61998518        1.91681392        1.06903595
  |   45: Species Mo            8.28578660        3.84179524        2.69256822
  |   46: Species Se            9.93613624        4.81138505        4.36451128
  |   47: Species Se            9.97395009        4.77247989        1.04556346
  |   48: Species Mo            6.72402936        6.69469847        2.53091220
  |   49: Species Se            8.24095572        7.66287656        4.29873131
  |   50: Species Se            8.36163573        7.65667220        0.93047046
  |   51: Species Mo            5.00979794        9.66381567        2.53092050
  |   52: Species Se            6.60672153       10.49347486        4.29873388
  |   53: Species Se            6.66167953       10.60111180        0.93046503
  |   54: Species Mo            3.31997375       12.44288167        2.69261545
  |   55: Species Se            4.98484608       13.38733770        4.36454847
  |   56: Species Se            4.97004972       13.43949604        1.04558834
  |   57: Species Mo           13.28030246        0.95824710        2.72822231
  |   58: Species Se           14.96868785        1.92779048        4.36452689
  |   59: Species Se           14.91608633        1.91445945        1.04555221
  |   60: Species Mo           11.61998446        3.83399391        2.72820461
  |   61: Species Se           13.30384971        4.81139059        4.36450834
  |   62: Species Se           13.26602857        4.77249268        1.04555822
  |   63: Species Mo            9.96737343        6.72094837        2.68045773
  |   64: Species Se           11.62000597        7.67987266        4.34874287
  |   65: Species Se           11.62000590        7.65760546        1.00075380
  |   66: Species Mo            8.27096898        9.56726500        2.62872430
  |   67: Species Se            9.93614209       10.52861212        4.30310500
  |   68: Species Se            9.96350416       10.54442741        0.99317272
  |   69: Species Mo            6.65420472       12.45957896        2.68048437
  |   70: Species Se            8.31097385       13.41129074        4.34877483
  |   71: Species Se            8.29166997       13.42239986        1.00075641

  Lattice parameters for 3D lattice (in Angstroms) :    16.600000   16.600000  100.000000
  Angle(s) between unit vectors (in degrees)       :    90.000000   90.000000  120.000000


  Quantities derived from the lattice vectors:
  | Reciprocal lattice vector 1:  0.378505  0.218530  0.000000
  | Reciprocal lattice vector 2: -0.000000  0.437060  0.000000
  | Reciprocal lattice vector 3:  0.000000  0.000000  0.062832
  | Unit cell volume                               :   0.238642E+05  A^3

  Fractional coordinates:
                         L1                L2                L3
       atom_frac         0.03330701        0.06579795        0.02680458  Mo
       atom_frac         0.17006994        0.13703645        0.04298696  Se
       atom_frac         0.16258451        0.12998230        0.00930456  Se
       atom_frac         0.03447340        0.26723744        0.02692555  Mo
       atom_frac         0.17795024        0.33897507        0.04283735  Se
       atom_frac         0.16128547        0.33064435        0.00917903  Se
       atom_frac         0.03331216        0.46751131        0.02680458  Mo
       atom_frac         0.17007465        0.53303435        0.04298743  Se
       atom_frac         0.16258881        0.53260296        0.00930471  Se
       atom_frac         0.03301324        0.66602605        0.02658334  Mo
       atom_frac         0.16762458        0.73237313        0.04303112  Se
       atom_frac         0.16652687        0.73347369        0.00993179  Se
       atom_frac         0.03301016        0.86698382        0.02658348  Mo
       atom_frac         0.16762348        0.93524617        0.04303102  Se
       atom_frac         0.16652368        0.93304557        0.00993195  Se
       atom_frac         0.23449688        0.06899186        0.02628712  Mo
       atom_frac         0.36696780        0.13703674        0.04298707  Se
       atom_frac         0.36739983        0.12998273        0.00930470  Se
       atom_frac         0.22777833        0.26209205        0.02530882  Mo
       atom_frac         0.37211695        0.34423021        0.01324345  Se
       atom_frac         0.22778270        0.46569095        0.02530902  Mo
       atom_frac         0.37211605        0.52788768        0.01324216  Se
       atom_frac         0.23450051        0.66550259        0.02628734  Mo
       atom_frac         0.36696794        0.72992807        0.04298756  Se
       atom_frac         0.36740141        0.73741611        0.00930480  Se
       atom_frac         0.23397411        0.86698382        0.02658358  Mo
       atom_frac         0.36578570        0.93289277        0.04348787  Se
       atom_frac         0.36733546        0.93366580        0.01000778  Se
       atom_frac         0.43249054        0.06579797        0.02680477  Mo
       atom_frac         0.56532003        0.13409761        0.04364544  Se
       atom_frac         0.56802483        0.13317014        0.01045565  Se
       atom_frac         0.43431526        0.26209248        0.02530907  Mo
       atom_frac         0.56102392        0.33897271        0.04283763  Se
       atom_frac         0.56935774        0.33064130        0.00917901  Se
       atom_frac         0.55577323        0.52788662        0.01324233  Se
       atom_frac         0.43430946        0.67221653        0.02530936  Mo
       atom_frac         0.56102181        0.72204685        0.04283776  Se
       atom_frac         0.56935741        0.73871895        0.00917941  Se
       atom_frac         0.43248945        0.86669042        0.02680503  Mo
       atom_frac         0.56532054        0.93122690        0.04364562  Se
       atom_frac         0.56802516        0.93485510        0.01045596  Se
       atom_frac         0.63330812        0.06665604        0.02728233  Mo
       atom_frac         0.76666798        0.13333679        0.04400426  Se
       atom_frac         0.76666616        0.13333410        0.01069036  Se
       atom_frac         0.63276193        0.26723633        0.02692568  Mo
       atom_frac         0.76590305        0.33468126        0.04364511  Se
       atom_frac         0.76682787        0.33197501        0.01045563  Se
       atom_frac         0.63790454        0.46568506        0.02530912  Mo
       atom_frac         0.76295901        0.53303179        0.04298731  Se
       atom_frac         0.77001310        0.53260021        0.00930470  Se
       atom_frac         0.63790389        0.67221766        0.02530920  Mo
       atom_frac         0.76295976        0.72992898        0.04298734  Se
       atom_frac         0.77001411        0.73741624        0.00930465  Se
       atom_frac         0.63276354        0.86553025        0.02692615  Mo
       atom_frac         0.76590537        0.93122687        0.04364548  Se
       atom_frac         0.76682810        0.93485502        0.01045588  Se
       atom_frac         0.83334619        0.06665593        0.02728222  Mo
       atom_frac         0.96877700        0.13409763        0.04364527  Se
       atom_frac         0.96514458        0.13317032        0.01045552  Se
       atom_frac         0.83334590        0.26669366        0.02728205  Mo
       atom_frac         0.96877755        0.33468164        0.04364508  Se
       atom_frac         0.96514630        0.33197590        0.01045558  Se
       atom_frac         0.83419969        0.46751101        0.02680458  Mo
       atom_frac         0.96710738        0.53421404        0.04348743  Se
       atom_frac         0.96633292        0.53266513        0.01000754  Se
       atom_frac         0.83100193        0.66550157        0.02628724  Mo
       atom_frac         0.96474935        0.73237314        0.04303105  Se
       atom_frac         0.96694772        0.73347325        0.00993173  Se
       atom_frac         0.83420157        0.86669172        0.02680484  Mo
       atom_frac         0.96710760        0.93289305        0.04348775  Se
       atom_frac         0.96633109        0.93366580        0.01000756  Se

 
  Finished reading input file 'control.in'.
 

------------------------------------------------------------
          Reading geometry description geometry.in.
------------------------------------------------------------
 
  Consistency checks for stacksize environment parameter are next.
 
  | Maximum stacksize for task 0: unlimited
  | Maximum stacksize for task 1: unlimited
  | Maximum stacksize for task 2: unlimited
  | Maximum stacksize for task 3: unlimited
  | Maximum stacksize for task 4: unlimited
  | Maximum stacksize for task 5: unlimited
  | Maximum stacksize for task 6: unlimited
  | Maximum stacksize for task 7: unlimited
  | Maximum stacksize for task 8: unlimited
  | Maximum stacksize for task 9: unlimited
  | Maximum stacksize for task 10: unlimited
  | Maximum stacksize for task 11: unlimited
  | Maximum stacksize for task 12: unlimited
  | Maximum stacksize for task 13: unlimited
  | Maximum stacksize for task 14: unlimited
  | Maximum stacksize for task 15: unlimited
  | Maximum stacksize for task 16: unlimited
  | Maximum stacksize for task 17: unlimited
  | Maximum stacksize for task 18: unlimited
  | Maximum stacksize for task 19: unlimited
  | Maximum stacksize for task 20: unlimited
  | Maximum stacksize for task 21: unlimited
  | Maximum stacksize for task 22: unlimited
  | Maximum stacksize for task 23: unlimited
  | Maximum stacksize for task 24: unlimited
  | Maximum stacksize for task 25: unlimited
  | Maximum stacksize for task 26: unlimited
  | Maximum stacksize for task 27: unlimited
  | Maximum stacksize for task 28: unlimited
  | Maximum stacksize for task 29: unlimited
  | Maximum stacksize for task 30: unlimited
  | Maximum stacksize for task 31: unlimited
  | Maximum stacksize for task 32: unlimited
  | Maximum stacksize for task 33: unlimited
  | Maximum stacksize for task 34: unlimited
  | Maximum stacksize for task 35: unlimited
  | Maximum stacksize for task 36: unlimited
  | Maximum stacksize for task 37: unlimited
  | Maximum stacksize for task 38: unlimited
  | Maximum stacksize for task 39: unlimited
  | Maximum stacksize for task 40: unlimited
  | Maximum stacksize for task 41: unlimited
  | Maximum stacksize for task 42: unlimited
  | Maximum stacksize for task 43: unlimited
  | Maximum stacksize for task 44: unlimited
  | Maximum stacksize for task 45: unlimited
  | Maximum stacksize for task 46: unlimited
  | Maximum stacksize for task 47: unlimited
  | Maximum stacksize for task 48: unlimited
  | Maximum stacksize for task 49: unlimited
  | Maximum stacksize for task 50: unlimited
  | Maximum stacksize for task 51: unlimited
  | Maximum stacksize for task 52: unlimited
  | Maximum stacksize for task 53: unlimited
  | Maximum stacksize for task 54: unlimited
  | Maximum stacksize for task 55: unlimited
  | Maximum stacksize for task 56: unlimited
  | Maximum stacksize for task 57: unlimited
  | Maximum stacksize for task 58: unlimited
  | Maximum stacksize for task 59: unlimited
  | Maximum stacksize for task 60: unlimited
  | Maximum stacksize for task 61: unlimited
  | Maximum stacksize for task 62: unlimited
  | Maximum stacksize for task 63: unlimited
  | Maximum stacksize for task 64: unlimited
  | Maximum stacksize for task 65: unlimited
  | Maximum stacksize for task 66: unlimited
  | Maximum stacksize for task 67: unlimited
  | Maximum stacksize for task 68: unlimited
  | Maximum stacksize for task 69: unlimited
  | Maximum stacksize for task 70: unlimited
  | Maximum stacksize for task 71: unlimited
  | Maximum stacksize for task 72: unlimited
  | Maximum stacksize for task 73: unlimited
  | Maximum stacksize for task 74: unlimited
  | Maximum stacksize for task 75: unlimited
  | Maximum stacksize for task 76: unlimited
  | Maximum stacksize for task 77: unlimited
  | Maximum stacksize for task 78: unlimited
  | Maximum stacksize for task 79: unlimited
  | Maximum stacksize for task 80: unlimited
  | Maximum stacksize for task 81: unlimited
  | Maximum stacksize for task 82: unlimited
  | Maximum stacksize for task 83: unlimited
  | Maximum stacksize for task 84: unlimited
  | Maximum stacksize for task 85: unlimited
  | Maximum stacksize for task 86: unlimited
  | Maximum stacksize for task 87: unlimited
  | Maximum stacksize for task 88: unlimited
  | Maximum stacksize for task 89: unlimited
  | Maximum stacksize for task 90: unlimited
  | Maximum stacksize for task 91: unlimited
  | Maximum stacksize for task 92: unlimited
  | Maximum stacksize for task 93: unlimited
  | Maximum stacksize for task 94: unlimited
  | Maximum stacksize for task 95: unlimited
  | Maximum stacksize for task 96: unlimited
  | Maximum stacksize for task 97: unlimited
  | Maximum stacksize for task 98: unlimited
  | Maximum stacksize for task 99: unlimited
  | Maximum stacksize for task 100: unlimited
  | Maximum stacksize for task 101: unlimited
  | Maximum stacksize for task 102: unlimited
  | Maximum stacksize for task 103: unlimited
  | Maximum stacksize for task 104: unlimited
  | Maximum stacksize for task 105: unlimited
  | Maximum stacksize for task 106: unlimited
  | Maximum stacksize for task 107: unlimited
  | Maximum stacksize for task 108: unlimited
  | Maximum stacksize for task 109: unlimited
  | Maximum stacksize for task 110: unlimited
  | Maximum stacksize for task 111: unlimited
  | Maximum stacksize for task 112: unlimited
  | Maximum stacksize for task 113: unlimited
  | Maximum stacksize for task 114: unlimited
  | Maximum stacksize for task 115: unlimited
  | Maximum stacksize for task 116: unlimited
  | Maximum stacksize for task 117: unlimited
  | Maximum stacksize for task 118: unlimited
  | Maximum stacksize for task 119: unlimited
  | Maximum stacksize for task 120: unlimited
  | Maximum stacksize for task 121: unlimited
  | Maximum stacksize for task 122: unlimited
  | Maximum stacksize for task 123: unlimited
  | Maximum stacksize for task 124: unlimited
  | Maximum stacksize for task 125: unlimited
  | Maximum stacksize for task 126: unlimited
  | Maximum stacksize for task 127: unlimited
  | Maximum stacksize for task 128: unlimited
  | Maximum stacksize for task 129: unlimited
  | Maximum stacksize for task 130: unlimited
  | Maximum stacksize for task 131: unlimited
  | Maximum stacksize for task 132: unlimited
  | Maximum stacksize for task 133: unlimited
  | Maximum stacksize for task 134: unlimited
  | Maximum stacksize for task 135: unlimited
  | Maximum stacksize for task 136: unlimited
  | Maximum stacksize for task 137: unlimited
  | Maximum stacksize for task 138: unlimited
  | Maximum stacksize for task 139: unlimited
  | Maximum stacksize for task 140: unlimited
  | Maximum stacksize for task 141: unlimited
  | Maximum stacksize for task 142: unlimited
  | Maximum stacksize for task 143: unlimited
  | Maximum stacksize for task 144: unlimited
  | Maximum stacksize for task 145: unlimited
  | Maximum stacksize for task 146: unlimited
  | Maximum stacksize for task 147: unlimited
  | Maximum stacksize for task 148: unlimited
  | Maximum stacksize for task 149: unlimited
  | Maximum stacksize for task 150: unlimited
  | Maximum stacksize for task 151: unlimited
  | Maximum stacksize for task 152: unlimited
  | Maximum stacksize for task 153: unlimited
  | Maximum stacksize for task 154: unlimited
  | Maximum stacksize for task 155: unlimited
  | Maximum stacksize for task 156: unlimited
  | Maximum stacksize for task 157: unlimited
  | Maximum stacksize for task 158: unlimited
  | Maximum stacksize for task 159: unlimited
  | Current stacksize for task 0: unlimited
  | Current stacksize for task 1: unlimited
  | Current stacksize for task 2: unlimited
  | Current stacksize for task 3: unlimited
  | Current stacksize for task 4: unlimited
  | Current stacksize for task 5: unlimited
  | Current stacksize for task 6: unlimited
  | Current stacksize for task 7: unlimited
  | Current stacksize for task 8: unlimited
  | Current stacksize for task 9: unlimited
  | Current stacksize for task 10: unlimited
  | Current stacksize for task 11: unlimited
  | Current stacksize for task 12: unlimited
  | Current stacksize for task 13: unlimited
  | Current stacksize for task 14: unlimited
  | Current stacksize for task 15: unlimited
  | Current stacksize for task 16: unlimited
  | Current stacksize for task 17: unlimited
  | Current stacksize for task 18: unlimited
  | Current stacksize for task 19: unlimited
  | Current stacksize for task 20: unlimited
  | Current stacksize for task 21: unlimited
  | Current stacksize for task 22: unlimited
  | Current stacksize for task 23: unlimited
  | Current stacksize for task 24: unlimited
  | Current stacksize for task 25: unlimited
  | Current stacksize for task 26: unlimited
  | Current stacksize for task 27: unlimited
  | Current stacksize for task 28: unlimited
  | Current stacksize for task 29: unlimited
  | Current stacksize for task 30: unlimited
  | Current stacksize for task 31: unlimited
  | Current stacksize for task 32: unlimited
  | Current stacksize for task 33: unlimited
  | Current stacksize for task 34: unlimited
  | Current stacksize for task 35: unlimited
  | Current stacksize for task 36: unlimited
  | Current stacksize for task 37: unlimited
  | Current stacksize for task 38: unlimited
  | Current stacksize for task 39: unlimited
  | Current stacksize for task 40: unlimited
  | Current stacksize for task 41: unlimited
  | Current stacksize for task 42: unlimited
  | Current stacksize for task 43: unlimited
  | Current stacksize for task 44: unlimited
  | Current stacksize for task 45: unlimited
  | Current stacksize for task 46: unlimited
  | Current stacksize for task 47: unlimited
  | Current stacksize for task 48: unlimited
  | Current stacksize for task 49: unlimited
  | Current stacksize for task 50: unlimited
  | Current stacksize for task 51: unlimited
  | Current stacksize for task 52: unlimited
  | Current stacksize for task 53: unlimited
  | Current stacksize for task 54: unlimited
  | Current stacksize for task 55: unlimited
  | Current stacksize for task 56: unlimited
  | Current stacksize for task 57: unlimited
  | Current stacksize for task 58: unlimited
  | Current stacksize for task 59: unlimited
  | Current stacksize for task 60: unlimited
  | Current stacksize for task 61: unlimited
  | Current stacksize for task 62: unlimited
  | Current stacksize for task 63: unlimited
  | Current stacksize for task 64: unlimited
  | Current stacksize for task 65: unlimited
  | Current stacksize for task 66: unlimited
  | Current stacksize for task 67: unlimited
  | Current stacksize for task 68: unlimited
  | Current stacksize for task 69: unlimited
  | Current stacksize for task 70: unlimited
  | Current stacksize for task 71: unlimited
  | Current stacksize for task 72: unlimited
  | Current stacksize for task 73: unlimited
  | Current stacksize for task 74: unlimited
  | Current stacksize for task 75: unlimited
  | Current stacksize for task 76: unlimited
  | Current stacksize for task 77: unlimited
  | Current stacksize for task 78: unlimited
  | Current stacksize for task 79: unlimited
  | Current stacksize for task 80: unlimited
  | Current stacksize for task 81: unlimited
  | Current stacksize for task 82: unlimited
  | Current stacksize for task 83: unlimited
  | Current stacksize for task 84: unlimited
  | Current stacksize for task 85: unlimited
  | Current stacksize for task 86: unlimited
  | Current stacksize for task 87: unlimited
  | Current stacksize for task 88: unlimited
  | Current stacksize for task 89: unlimited
  | Current stacksize for task 90: unlimited
  | Current stacksize for task 91: unlimited
  | Current stacksize for task 92: unlimited
  | Current stacksize for task 93: unlimited
  | Current stacksize for task 94: unlimited
  | Current stacksize for task 95: unlimited
  | Current stacksize for task 96: unlimited
  | Current stacksize for task 97: unlimited
  | Current stacksize for task 98: unlimited
  | Current stacksize for task 99: unlimited
  | Current stacksize for task 100: unlimited
  | Current stacksize for task 101: unlimited
  | Current stacksize for task 102: unlimited
  | Current stacksize for task 103: unlimited
  | Current stacksize for task 104: unlimited
  | Current stacksize for task 105: unlimited
  | Current stacksize for task 106: unlimited
  | Current stacksize for task 107: unlimited
  | Current stacksize for task 108: unlimited
  | Current stacksize for task 109: unlimited
  | Current stacksize for task 110: unlimited
  | Current stacksize for task 111: unlimited
  | Current stacksize for task 112: unlimited
  | Current stacksize for task 113: unlimited
  | Current stacksize for task 114: unlimited
  | Current stacksize for task 115: unlimited
  | Current stacksize for task 116: unlimited
  | Current stacksize for task 117: unlimited
  | Current stacksize for task 118: unlimited
  | Current stacksize for task 119: unlimited
  | Current stacksize for task 120: unlimited
  | Current stacksize for task 121: unlimited
  | Current stacksize for task 122: unlimited
  | Current stacksize for task 123: unlimited
  | Current stacksize for task 124: unlimited
  | Current stacksize for task 125: unlimited
  | Current stacksize for task 126: unlimited
  | Current stacksize for task 127: unlimited
  | Current stacksize for task 128: unlimited
  | Current stacksize for task 129: unlimited
  | Current stacksize for task 130: unlimited
  | Current stacksize for task 131: unlimited
  | Current stacksize for task 132: unlimited
  | Current stacksize for task 133: unlimited
  | Current stacksize for task 134: unlimited
  | Current stacksize for task 135: unlimited
  | Current stacksize for task 136: unlimited
  | Current stacksize for task 137: unlimited
  | Current stacksize for task 138: unlimited
  | Current stacksize for task 139: unlimited
  | Current stacksize for task 140: unlimited
  | Current stacksize for task 141: unlimited
  | Current stacksize for task 142: unlimited
  | Current stacksize for task 143: unlimited
  | Current stacksize for task 144: unlimited
  | Current stacksize for task 145: unlimited
  | Current stacksize for task 146: unlimited
  | Current stacksize for task 147: unlimited
  | Current stacksize for task 148: unlimited
  | Current stacksize for task 149: unlimited
  | Current stacksize for task 150: unlimited
  | Current stacksize for task 151: unlimited
  | Current stacksize for task 152: unlimited
  | Current stacksize for task 153: unlimited
  | Current stacksize for task 154: unlimited
  | Current stacksize for task 155: unlimited
  | Current stacksize for task 156: unlimited
  | Current stacksize for task 157: unlimited
  | Current stacksize for task 158: unlimited
  | Current stacksize for task 159: unlimited
 
  Consistency checks for the contents of control.in are next.
 
  HSE06 functional: Converting omega to        0.26458860 bohr^-1.
  HSE06 screening parameters: omega_HF  =      0.26458860 bohr^-1, and
                              omega_PBE =      0.26458860 bohr^-1.
  MPI_IN_PLACE appears to work with this MPI implementation.
  | Keeping use_mpi_in_place .true. (see manual).
  Explicit treatment of the Coulomb operator is needed, but the RI method is not specified.
  Coulomb operator: Defaulting to 'LVL fast' resolution of identity - RI_type = LVL_fast
  Species Mo: Using default value for prodbas_acc =   1.000000E-04.
  Species Mo: Using default value max_l_prodbas =    20.
  Species S: Using default value for prodbas_acc =   1.000000E-04.
  Species S: Using default value max_l_prodbas =    20.
  Species Se: Using default value for prodbas_acc =   1.000000E-04.
  Species Se: Using default value max_l_prodbas =    20.
  Target number of points in a grid batch is not set. Defaulting to  100
  Method for grid partitioning is not set. Defaulting to parallel hash+maxmin partitioning.
  Batch size limit is not set. Defaulting to    200
  By default, will store active basis functions for each batch.
  If in need of memory, prune_basis_once .false. can be used to disable this option.
  communication_type for Hartree potential was not specified.
  Defaulting to calc_hartree .
  Pulay mixer: Number of initial linear mixing iterations not set.
  Defaulting to    0 iterations.
  Work space size for distributed Hartree potential not set.
  Defaulting to   0.200000E+03 MB.
  Algorithm-dependent basis array size parameters:
  | n_max_pulay                         :       12
  Maximum number of self-consistency iterations not provided.
  Presetting  1000 iterations.
  Presetting      1001 iterations before the initial mixing cycle
  is restarted anyway using the sc_init_iter criterion / keyword.
  Presetting a factor      1.000 between actual scf density residual
  and density convergence criterion sc_accuracy_rho below which sc_init_iter
  takes no effect.
 * No s.c.f. convergence criteria (sc_accuracy_*) were provided in control.in.
 * The run will proceed with a reasonable default guess, but please check whether.
 * the s.c.f. cycles seem to take too much or too little time.
  No maximum number of relaxation steps, defaulting to     1000
  Default initial Hessian is Lindh matrix (thres = 15.00) plus  0.200000E+01 eV/A^2 times unity.
  No maximum energy tolerance for TRM/BFGS moves, defaulting to   0.100000E-02
  Maximum energy tolerance by which TRM/BFGS trajectory may increase over multiple steps:   0.300000E-02
  No harmonic length scale. Defaulting to   0.250000E-01 A.
  No trust radius initializer. Defaulting to   0.200000E+00 A.
  Forces evaluation will include force correction term due to incomplete self-consistency (default).
 * Notice: The s.c.f. convergence criterion sc_accuracy_rho was not provided.
 * We used to stop in this case, and ask the user to provide reasonable
 * scf convergence criteria. However, this led some users to employ criteria
 * that led to extremely long run times, e.g., for simple relaxation.
 * We now preset a default value for sc_accuracy_rho if it is not set.
 * You may still wish to check if this setting is too tight or too loose for your needs.
 * Based on n_atoms and forces and force-correction status, FHI-aims chose sc_accuracy_rho =  0.275197E-04 .
  Force calculation: scf convergence accuracy of forces not set.
  Defaulting to 'sc_accuracy_forces not_checked'.
  Handling of forces: Unphysical translation and rotation will be removed from forces.
  No accuracy limit for integral partition fn. given. Defaulting to  0.1000E-14.
  No threshold value for u(r) in integrations given. Defaulting to  0.1000E-05.
  No accuracy for occupation numbers given. Defaulting to  0.1000E-12.
  No threshold value for occupation numbers given. Defaulting to  0.0000E+00.
  No accuracy for fermi level given. Defaulting to  0.1000E-19.
  Maximum # of iterations to find E_F not set. Defaulting to  200.
  Preferred method for the eigenvalue solver ('KS_method') not specified in 'control.in'.
  Calling BLACS routine to test compilation state
  Since ScaLAPACK support is enabled, defaulting to ELPA (via ELSI).
  Will not use alltoall communication since running on < 1024 CPUs.
  Threshold for basis singularities not set.
  Default threshold for basis singularities:  0.1000E-04
  partition_type (choice of integration weights) for integrals was not specified.
  | Using a version of the partition function of Stratmann and coworkers ('stratmann_sparse').
  | At each grid point, the set of atoms used to build the partition table is smoothly restricted to
  | only those atoms whose free-atom density would be non-zero at that grid point.
  Partitioning for Hartree potential was not defined. Using partition_type for integrals.
  | Adjusted default value of keyword multip_moments_threshold to:       0.10000000E-11
  | This value may affect high angular momentum components of the Hartree potential in periodic systems.
  Spin handling was not defined in control.in. Defaulting to unpolarized case.
  Threshold for auxiliary basis singularities not set.
  Default threshold for auxiliary basis singularities:  0.1000E-04
  No q(lm)/r^(l+1) cutoff set for long-range Hartree potential.
  | Using default value of  0.100000E-09 .
  | Verify using the multipole_threshold keyword.
  Defaulting to new monopole extrapolation.
  Density update method: automatic selection selected.
  Using density matrix based charge density update.
  Using density matrix based charge density update.
  Using packed matrix style: index .
 * NOTE: You are attempting to run a periodic structure with an exchange treatment
 * which requires a two-electron Coulomb operator (Hartree-Fock or a hybrid functional).
 * The present implementation is reliable to our knowledge, but some things
 * (like band structure output, or perhaps the auxilary basis set for small
 * orbital basis sets - see the "for_aux" keyword) require extra care.
 * Please let us know if you encounter any trouble.
  Coulomb operator: Defaulting to screening threshold for four-center integrals:   0.100000E-06
  Coulomb operator: Defaulting to screening threshold for Coulomb matrix:   0.100000E-09
  Coulomb operator: Defaulting to 'LVL_fast' resolution of identity - RI_type = LVL_fast 
  No other resolution of identity version is supported for periodic boundary conditions at present.
  Coulomb operator: Defaulting to logarithmic spherical Bessel transform integrals (use_logsbt .true.).
  HSE with LVL_fast: Also defaulting to logarithmic spherical Bessel transform integrals.
  Geometry relaxation: A file "geometry.in.next_step" is written out by default after each step.
  | This file contains the geometry of the current relaxation step as well as
  | the current Hessian matrix needed to restart the relaxation algorithm.
  | If you do not want part or all of this information, use the keywords
  | "write_restart_geometry" or "hessian_to_restart_geometry" to switch the output off.
  Defaulting to use full k-point grid (no symmetry reduction).
  Charge integration errors on the 3D integration grid will be compensated
  by explicit normalization and distribution of residual charges.
  Use the "compensate_multipole_errors" flag to change this behaviour.
  LVL not implemented with density matrix yet
  -> switching to transformed overlap
  LVL probably works better with logsbt
  Default to 1D ("use_logsbt") integrations for auxiliary 2-center integrals.
  Default onset of logarithmic r-grid for SBT is -38.000000000000
  Default onset of logarithmic k-grid for SBT is -25.000000000000
  Default range of logarithmic r- and k-grid for SBT is  45.000000000000
  Default number of logarithmic r- and k-grid for SBT is   4096
  * Use logSBT for radial HSE integration, too
  Default of use_2d_corr is to use the efficient 2D distribution where possible
 
  Consistency checks for the contents of geometry.in are next.
 

  Range separation radius for Ewald summation (hartree_convergence_parameter):      5.00000000 bohr.
  Number of empty states per atom not set in control.in - providing a guess from actual geometry.
  | Total number of empty states used during s.c.f. cycle:      391
  If you use a very high smearing, use empty_states (per atom!) in control.in to increase this value.

  Structure-dependent array size parameters: 
  | Maximum number of distinct radial functions  :       37
  | Maximum number of basis functions            :     2774
  | Number of Kohn-Sham states (occupied + empty):     1694
------------------------------------------------------------
  Setting Coulomb cut-width to  1.091868692359 * rcut.
  Setting Coulomb cutting radius rcut to 33.199999995113 A.
 Error: The dipole correction needs vacuum z-level to be defined
 Vacuum level will be determined automatically.
 Determine position of vacuum level automatically
 **WARNING** : This feature is experimental and still requires some testing
 **PLEASE ** : If you see it fail, please report.
 Vacuum level determined:
 set_vacuum_level    52.6591637400000

------------------------------------------------------------
          Preparing all fixed parts of the calculation.
------------------------------------------------------------
  Determining machine precision:
    2.225073858507201E-308
  Setting up grids for atomic and cluster calculations.

  Creating wave function, potential, and density for free atoms.

  Species: Mo

  List of occupied orbitals and eigenvalues:
    n    l              occ      energy [Ha]    energy [eV]
    1    0           2.0000      -745.344654    -20281.8600
    2    0           2.0000      -103.288246     -2810.6162
    3    0           2.0000       -17.516687      -476.6533
    4    0           2.0000        -2.358559       -64.1796
    5    0           1.0000        -0.145159        -3.9500
    2    1           6.0000       -92.308627     -2511.8455
    3    1           6.0000       -13.936005      -379.2180
    4    1           6.0000        -1.408138       -38.3174
    3    2          10.0000        -8.119011      -220.9295
    4    2           5.0000        -0.132984        -3.6187


  Species: S

  List of occupied orbitals and eigenvalues:
    n    l              occ      energy [Ha]    energy [eV]
    1    0           2.0000       -88.680731     -2413.1255
    2    0           2.0000        -7.781719      -211.7513
    3    0           2.0000        -0.633662       -17.2428
    2    1           6.0000        -5.751976      -156.5192
    3    1           4.0000        -0.257086        -6.9957


  Species: Se

  List of occupied orbitals and eigenvalues:
    n    l              occ      energy [Ha]    energy [eV]
    1    0           2.0000      -466.337810    -12689.6975
    2    0           2.0000       -59.202598     -1610.9847
    3    0           2.0000        -7.847116      -213.5309
    4    0           2.0000        -0.634372       -17.2621
    2    1           6.0000       -52.061107     -1416.6548
    3    1           6.0000        -5.620941      -152.9536
    4    1           4.0000        -0.238469        -6.4891
    3    2          10.0000        -1.951949       -53.1152


  Adding cutoff potential to free-atom effective potential.
  Creating fixed part of basis set: Ionic, confined, hydrogenic.
 
  Mo                   ion:

  List of free ionic orbitals and eigenvalues:
    n    l      energy [Ha]    energy [eV]
    1    0      -746.048685    -20301.0176
    2    0      -103.980912     -2829.4646
    3    0       -18.206601      -495.4268
    4    0        -3.040545       -82.7374
    2    1       -93.001013     -2530.6863
    3    1       -14.625827      -397.9890
    4    1        -2.084855       -56.7318
    3    2        -8.808854      -239.7011
    4    2        -0.765435       -20.8285


  List of ionic basis orbitals and eigenvalues:
    n    l      energy [Ha]    energy [eV]    outer radius [A]
    5    1        -0.465587       -12.6693       5.456393
    5    0        -0.650331       -17.6964       5.390095

 
  Mo                   hydrogenic:
 
  List of hydrogenic basis orbitals: 
    n    l      effective z      eigenvalue [eV]  inner max. [A]     outer max. [A]     outer radius [A]   
    4    3         8.400000       -60.0010           1.009788           1.009788           4.487018
    3    2         2.800000       -11.8048           1.687401           1.687401           5.456393
 
  List of extra hydrogenic orbitals for auxiliary basis: 
    n    l      effective z      eigenvalue [eV]  inner max. [A]     outer max. [A]     outer radius [A]   
    5    4        12.000000       -78.3687           1.100005           1.100005           4.432498
 
 
  S                    ion:

  List of free ionic orbitals and eigenvalues:
    n    l      energy [Ha]    energy [eV]
    1    0       -89.703778     -2440.9640
    2    0        -8.775428      -238.7916
    3    0        -1.470343       -40.0101
    2    1        -6.747660      -183.6132
    3    1        -1.048627       -28.5346


  List of ionic basis orbitals and eigenvalues:
    n    l      energy [Ha]    energy [eV]    outer radius [A]
    3    2        -0.495605       -13.4861       5.386362
    3    0        -1.470336       -40.0099       3.967934

 
  S                    hydrogenic:
 
  List of hydrogenic basis orbitals: 
    n    l      effective z      eigenvalue [eV]  inner max. [A]     outer max. [A]     outer radius [A]   
    2    1         1.800000       -11.0118           1.168531           1.168531           5.452614
    4    3         7.000000       -41.6672           1.212182           1.212182           5.066981
 
  List of extra hydrogenic orbitals for auxiliary basis: 
    n    l      effective z      eigenvalue [eV]  inner max. [A]     outer max. [A]     outer radius [A]   
    5    4        10.800000       -63.4785           1.227092           1.227092           4.766538
 
 
  Se                   ion:

  List of free ionic orbitals and eigenvalues:
    n    l      energy [Ha]    energy [eV]
    1    0      -467.261007    -12714.8189
    2    0       -60.104893     -1635.5374
    3    0        -8.743714      -237.9286
    4    0        -1.414053       -38.4783
    2    1       -52.964156     -1441.2280
    3    1        -6.516916      -177.3343
    4    1        -0.961869       -26.1738
    3    2        -2.844511       -77.4031


  List of ionic basis orbitals and eigenvalues:
    n    l      energy [Ha]    energy [eV]    outer radius [A]
    4    0        -1.414046       -38.4782       4.083166

 
  Se                   hydrogenic:
 
  List of hydrogenic basis orbitals: 
    n    l      effective z      eigenvalue [eV]  inner max. [A]     outer max. [A]     outer radius [A]   
    3    2         4.300000       -27.9518           1.103845           1.103845           5.278265
    2    1         1.600000        -8.6828           1.326010           1.326010           5.475439
    4    3         7.200000       -44.0822           1.173422           1.173422           4.965294
 
  Creating atomic-like basis functions for current effective potential.

  Species Mo                  :

  List of atomic basis orbitals and eigenvalues:
    n    l      energy [Ha]    energy [eV]    outer radius [A]
    1    0      -745.344654    -20281.8600       0.247552
    2    0      -103.288246     -2810.6162       0.682864
    3    0       -17.516687      -476.6533       1.626637
    4    0        -2.358559       -64.1796       4.220963
    5    0        -0.145159        -3.9500       5.456393
    2    1       -92.308627     -2511.8455       0.699766
    3    1       -13.936005      -379.2180       1.793761
    4    1        -1.408138       -38.3174       4.828511
    3    2        -8.119011      -220.9295       2.181285
    4    2        -0.132984        -3.6187       5.390095


  Species S                   :

  List of atomic basis orbitals and eigenvalues:
    n    l      energy [Ha]    energy [eV]    outer radius [A]
    1    0       -88.680731     -2413.1255       0.682391
    2    0        -7.781719      -211.7513       2.289014
    3    0        -0.633662       -17.2428       5.256262
    2    1        -5.751976      -156.5192       2.555240
    3    1        -0.257086        -6.9957       5.386362


  Species Se                  :

  List of atomic basis orbitals and eigenvalues:
    n    l      energy [Ha]    energy [eV]    outer radius [A]
    1    0      -466.337810    -12689.6975       0.309561
    2    0       -59.202598     -1610.9847       0.885812
    3    0        -7.847116      -213.5309       2.355489
    4    0        -0.634372       -17.2621       5.214131
    2    1       -52.061107     -1416.6548       0.907737
    3    1        -5.620941      -152.9536       2.694529
    4    1        -0.238469        -6.4891       5.408909
    3    2        -1.951949       -53.1152       4.083166

  Assembling full basis from fixed parts.
  | Species Mo :   atomic orbital   1 s accepted.
  | Species Mo :   atomic orbital   2 s accepted.
  | Species Mo :   atomic orbital   3 s accepted.
  | Species Mo :   atomic orbital   4 s accepted.
  | Species Mo :    ionic orbital   5 s accepted.
  | Species Mo :   atomic orbital   5 s accepted.
  | Species Mo :   atomic orbital   2 p accepted.
  | Species Mo :   atomic orbital   3 p accepted.
  | Species Mo :   atomic orbital   4 p accepted.
  | Species Mo :    ionic orbital   5 p accepted.
  | Species Mo :   atomic orbital   3 d accepted.
  | Species Mo :   atomic orbital   4 d accepted.
  | Species Mo :    hydro orbital   3 d accepted.
  | Species Mo :    hydro orbital   4 f accepted.
  | Species S :   atomic orbital   1 s accepted.
  | Species S :   atomic orbital   2 s accepted.
  | Species S :    ionic orbital   3 s accepted.
  | Species S :   atomic orbital   3 s accepted.
  | Species S :   atomic orbital   2 p accepted.
  | Species S :   atomic orbital   3 p accepted.
  | Species S :    hydro orbital   2 p accepted.
  | Species S :    ionic orbital   3 d accepted.
  | Species S :    hydro orbital   4 f accepted.
  | Species Se :   atomic orbital   1 s accepted.
  | Species Se :   atomic orbital   2 s accepted.
  | Species Se :   atomic orbital   3 s accepted.
  | Species Se :    ionic orbital   4 s accepted.
  | Species Se :   atomic orbital   4 s accepted.
  | Species Se :   atomic orbital   2 p accepted.
  | Species Se :   atomic orbital   3 p accepted.
  | Species Se :   atomic orbital   4 p accepted.
  | Species Se :    hydro orbital   2 p accepted.
  | Species Se :   atomic orbital   3 d accepted.
  | Species Se :    hydro orbital   3 d accepted.
  | Species Se :    hydro orbital   4 f accepted.
 
  Basis size parameters after reduction:
  | Total number of radial functions:       35
  | Total number of basis functions :     2558
 
  Assembling extended basis for auxiliary basis.
  | Species Mo :   atomic orbital   1 s accepted.
  | Species Mo :   atomic orbital   2 s accepted.
  | Species Mo :   atomic orbital   3 s accepted.
  | Species Mo :   atomic orbital   4 s accepted.
  | Species Mo :    ionic orbital   5 s accepted.
  | Species Mo :   atomic orbital   5 s accepted.
  | Species Mo :   atomic orbital   2 p accepted.
  | Species Mo :   atomic orbital   3 p accepted.
  | Species Mo :   atomic orbital   4 p accepted.
[...]
  Task     61: my_n_atom_pairs:    222
  Task     62: my_n_atom_pairs:    222
  Task     63: my_n_atom_pairs:    222
  Task     64: my_n_atom_pairs:    222
  Task     65: my_n_atom_pairs:    222
  Task     66: my_n_atom_pairs:    222
  Task     67: my_n_atom_pairs:    222
  Task     68: my_n_atom_pairs:    222
  Task     69: my_n_atom_pairs:    218
  Task     70: my_n_atom_pairs:    218
  Task     71: my_n_atom_pairs:    218
  Task     72: my_n_atom_pairs:    218
  Task     73: my_n_atom_pairs:    218
  Task     74: my_n_atom_pairs:    218
  Task     75: my_n_atom_pairs:    218
  Task     76: my_n_atom_pairs:    218
  Task     77: my_n_atom_pairs:    218
  Task     78: my_n_atom_pairs:    218
  Task     79: my_n_atom_pairs:    218
  Task     80: my_n_atom_pairs:    218
  Task     81: my_n_atom_pairs:    216
  Task     82: my_n_atom_pairs:    216
  Task     83: my_n_atom_pairs:    216
  Task     84: my_n_atom_pairs:    216
  Task     85: my_n_atom_pairs:    217
  Task     86: my_n_atom_pairs:    216
  Task     87: my_n_atom_pairs:    216
  Task     88: my_n_atom_pairs:    216
  Task     89: my_n_atom_pairs:    216
  Task     90: my_n_atom_pairs:    216
  Task     91: my_n_atom_pairs:    216
  Task     92: my_n_atom_pairs:    216
  Task     93: my_n_atom_pairs:    222
  Task     94: my_n_atom_pairs:    114
  Task     95: my_n_atom_pairs:    114
  Task     96: my_n_atom_pairs:    114
  Task     97: my_n_atom_pairs:    114
  Task     98: my_n_atom_pairs:    115
  Task     99: my_n_atom_pairs:    115
  Task    100: my_n_atom_pairs:    115
  Task    101: my_n_atom_pairs:    115
  Task    102: my_n_atom_pairs:    114
  Task    103: my_n_atom_pairs:    114
  Task    104: my_n_atom_pairs:    114
  Task    105: my_n_atom_pairs:    114
  Task    106: my_n_atom_pairs:    112
  Task    107: my_n_atom_pairs:    112
  Task    108: my_n_atom_pairs:    112
  Task    109: my_n_atom_pairs:    112
  Task    110: my_n_atom_pairs:    112
  Task    111: my_n_atom_pairs:    112
  Task    112: my_n_atom_pairs:    112
  Task    113: my_n_atom_pairs:    112
  Task    114: my_n_atom_pairs:    115
  Task    115: my_n_atom_pairs:    115
  Task    116: my_n_atom_pairs:    115
  Task    117: my_n_atom_pairs:    115
  Task    118: my_n_atom_pairs:    117
  Task    119: my_n_atom_pairs:    117
  Task    120: my_n_atom_pairs:    117
  Task    121: my_n_atom_pairs:    117
  Task    122: my_n_atom_pairs:    117
  Task    123: my_n_atom_pairs:    117
  Task    124: my_n_atom_pairs:    117
  Task    125: my_n_atom_pairs:    117
  Task    126: my_n_atom_pairs:    115
  Task    127: my_n_atom_pairs:    115
  Task    128: my_n_atom_pairs:    115
  Task    129: my_n_atom_pairs:    115
  Task    130: my_n_atom_pairs:    224
  Task    131: my_n_atom_pairs:    224
  Task    132: my_n_atom_pairs:    228
  Task    133: my_n_atom_pairs:    228
  Task    134: my_n_atom_pairs:    234
  Task    135: my_n_atom_pairs:    234
  Task    136: my_n_atom_pairs:    234
  Task    137: my_n_atom_pairs:    234
  Task    138: my_n_atom_pairs:    228
  Task    139: my_n_atom_pairs:    228
  Task    140: my_n_atom_pairs:    222
  Task    141: my_n_atom_pairs:    222
  Task    142: my_n_atom_pairs:    230
  Task    143: my_n_atom_pairs:    230
  Task    144: my_n_atom_pairs:    234
  Task    145: my_n_atom_pairs:    234
  Task    146: my_n_atom_pairs:    234
  Task    147: my_n_atom_pairs:    234
  Task    148: my_n_atom_pairs:    230
  Task    149: my_n_atom_pairs:    230
  Task    150: my_n_atom_pairs:    222
  Task    151: my_n_atom_pairs:    222
  Task    152: my_n_atom_pairs:    222
  Task    153: my_n_atom_pairs:    222
  Task    154: my_n_atom_pairs:    228
  Task    155: my_n_atom_pairs:    228
  Task    156: my_n_atom_pairs:    230
  Task    157: my_n_atom_pairs:    230
  Task    158: my_n_atom_pairs:    228
  Task    159: my_n_atom_pairs:    228
  Max. memory consumption per node for Hartree Fock matrix + Pulay mixing [GB]:     10.89
  --- Initializing LVL triples, type HSE
  | Storage requirements for basis-basbas products (processor-local):
  |   Species Mo: n_prodsfn:  1873; storage:       58.53 MiB.
  |   Species S: n_prodsfn:     0; storage:        0.00 MiB.
  |   Species Se: n_prodsfn:  1151; storage:       35.97 MiB.

  --- Initializing Coulomb matrix calculations, type HSE
  Preparing TB like auxiliary 2-center HSE-pot matrix
  SBT integration errors (all should be 'small'):
  large logFT aliasing -> increase N/lnrange
  large SBT aliasing -> decrease lnk0 & increase lnk0+lnrange
  large SBT ringing -> decrease lnr0 & increase lnr0+lnrange
  |            El't  L: logFT-al.   small-k   large-k   small-r   large-r
  | Need to store 22356 splines of   191 points taking      33712 KiB.
  | Spline reduction from  4096 to   191 points by (cutting and)     1 x coarsening gives error:  0.00E+00
  | Maximum value outside interaction range:  1.97E-13
  Finished with initialize_tb_auxmat/lvl_triples, time:        0.657
  Upper limit for memory consumption per node [GB] for Coulomb matrices if no compression occurs:     264.669
  Upper limit for temporary arrays in Coulomb matrix initalization [GB]:     12.00
  --- Calculating Coulomb matrices
  Max. memory consumption per node for Coulomb matrix [GB]:     15.13
  Time to calculate Coulomb Matrices   :       10.784
   Number of Coulomb matrix elements:
  | Task     0 total:      483707840, > threshold:       20991879, stored:       33186948
  | Task     1 total:      483707840, > threshold:       21068046, stored:       33202010
  | Task     2 total:      483707840, > threshold:       21068046, stored:       33202010
  | Task     3 total:      483707840, > threshold:       21260102, stored:       33356278
  | Task     4 total:      483707840, > threshold:       21260102, stored:       33356278
  | Task     5 total:      483707840, > threshold:       21215691, stored:       33214917
  | Task     6 total:      483707840, > threshold:       21215691, stored:       33214917
  | Task     7 total:      483707840, > threshold:       21024915, stored:       33238935
  | Task     8 total:      483707840, > threshold:       21024915, stored:       33238935
  | Task     9 total:      483707840, > threshold:       21128951, stored:       33242584
  | Task    10 total:      483707840, > threshold:       21128951, stored:       33242584
  | Task    11 total:      483707840, > threshold:       21175068, stored:       33120674
  | Task    12 total:      483707840, > threshold:       21175068, stored:       33120674
  | Task    13 total:      483707840, > threshold:       21385528, stored:       33199331
  | Task    14 total:      483707840, > threshold:       21385528, stored:       33199331
  | Task    15 total:      483707840, > threshold:       20826285, stored:       33120558
  | Task    16 total:      483707840, > threshold:       20826285, stored:       33120558
  | Task    17 total:      483707840, > threshold:       21010108, stored:       33199830
  | Task    18 total:      483707840, > threshold:       21010108, stored:       33199830
  | Task    19 total:      483707840, > threshold:       20983847, stored:       33186104
  | Task    20 total:      483707840, > threshold:       20983847, stored:       33186104
  | Task    21 total:      483707840, > threshold:       21035373, stored:       33201367
  | Task    22 total:      483707840, > threshold:       21035373, stored:       33201367
  | Task    23 total:      483707840, > threshold:       21771411, stored:       33782771
  | Task    24 total:      483707840, > threshold:       21771411, stored:       33782771
  | Task    25 total:      483707840, > threshold:       22119707, stored:       33804338
  | Task    26 total:      483707840, > threshold:       22119707, stored:       33804338
  | Task    27 total:      483707840, > threshold:       21016805, stored:       33198479
  | Task    28 total:      483707840, > threshold:       21016805, stored:       33198479
  | Task    29 total:      483707840, > threshold:       21082631, stored:       33186218
  | Task    30 total:      483707840, > threshold:       21082631, stored:       33186218
  | Task    31 total:      483707840, > threshold:       21220947, stored:       33323160
  | Task    32 total:      483707840, > threshold:       21220947, stored:       33323160
  | Task    33 total:      483707840, > threshold:       21394888, stored:       33437942
  | Task    34 total:      483707840, > threshold:       21394888, stored:       33437942
  | Task    35 total:      483707840, > threshold:       21023742, stored:       33066305
  | Task    36 total:      483707840, > threshold:       21023742, stored:       33066305
  | Task    37 total:      483707840, > threshold:       21323233, stored:       33293862
  | Task    38 total:      483707840, > threshold:       21323233, stored:       33293862
  | Task    39 total:      483707840, > threshold:       21252675, stored:       33356278
  | Task    40 total:      483707840, > threshold:       21252675, stored:       33356278
  | Task    41 total:      483707840, > threshold:       21216146, stored:       33214917
  | Task    42 total:      483707840, > threshold:       21216146, stored:       33214917
  | Task    43 total:      483707840, > threshold:       22116505, stored:       33803592
  | Task    44 total:      483707840, > threshold:       22116505, stored:       33803592
  | Task    45 total:      483707840, > threshold:       20860626, stored:       33347946
  | Task    46 total:      483707840, > threshold:       20860626, stored:       33347946
  | Task    47 total:      483707840, > threshold:       20910395, stored:       33189708
  | Task    48 total:      483707840, > threshold:       20910395, stored:       33189708
  | Task    49 total:      483707840, > threshold:       21054724, stored:       33078679
  | Task    50 total:      483707840, > threshold:       21054724, stored:       33078679
  | Task    51 total:      483707840, > threshold:       21300035, stored:       33276799
  | Task    52 total:      483707840, > threshold:       21300035, stored:       33276799
  | Task    53 total:      483707840, > threshold:       20975660, stored:       33090432
  | Task    54 total:      483707840, > threshold:       20975660, stored:       33090432
  | Task    55 total:      483707840, > threshold:       21201415, stored:       33349378
  | Task    56 total:      483707840, > threshold:       21201415, stored:       33349378
  | Task    57 total:      483707840, > threshold:       21073979, stored:       33113908
  | Task    58 total:      483707840, > threshold:       21073979, stored:       33113908
  | Task    59 total:      483707840, > threshold:       21355695, stored:       33328476
  | Task    60 total:      483707840, > threshold:       21355695, stored:       33328476
  | Task    61 total:      483707840, > threshold:       21012608, stored:       33239832
  | Task    62 total:      483707840, > threshold:       21012608, stored:       33239832
  | Task    63 total:      483707840, > threshold:       21118635, stored:       33242584
  | Task    64 total:      483707840, > threshold:       21118635, stored:       33242584
  | Task    65 total:      483707840, > threshold:       20994968, stored:       33198479
  | Task    66 total:      483707840, > threshold:       20994968, stored:       33198479
  | Task    67 total:      483707840, > threshold:       21071478, stored:       33186218
  | Task    68 total:      483707840, > threshold:       21071478, stored:       33186218
  | Task    69 total:      483707840, > threshold:       21036066, stored:       33078679
  | Task    70 total:      483707840, > threshold:       21036066, stored:       33078679
  | Task    71 total:      483707840, > threshold:       21291590, stored:       33277237
  | Task    72 total:      483707840, > threshold:       21291590, stored:       33277237
  | Task    73 total:      483707840, > threshold:       21029130, stored:       33066030
  | Task    74 total:      483707840, > threshold:       21029130, stored:       33066030
  | Task    75 total:      483707840, > threshold:       21342460, stored:       33294017
  | Task    76 total:      483707840, > threshold:       21342460, stored:       33294017
  | Task    77 total:      483707840, > threshold:       21086611, stored:       33113908
  | Task    78 total:      483707840, > threshold:       21086611, stored:       33113908
  | Task    79 total:      483707840, > threshold:       21363943, stored:       33327949
  | Task    80 total:      483707840, > threshold:       21363943, stored:       33327949
  | Task    81 total:      483707840, > threshold:       20859607, stored:       33407356
  | Task    82 total:      483707840, > threshold:       20859607, stored:       33407356
  | Task    83 total:      483707840, > threshold:       20971708, stored:       33503825
  | Task    84 total:      483707840, > threshold:       20971708, stored:       33503825
  | Task    85 total:      483707840, > threshold:       21157020, stored:       33120427
  | Task    86 total:      483707840, > threshold:       21157020, stored:       33120427
  | Task    87 total:      483707840, > threshold:       21387651, stored:       33199331
  | Task    88 total:      483707840, > threshold:       21387651, stored:       33199331
  | Task    89 total:      483707840, > threshold:       21216932, stored:       33323160
  | Task    90 total:      483707840, > threshold:       21216932, stored:       33323160
  | Task    91 total:      483707840, > threshold:       21381117, stored:       33437457
  | Task    92 total:      483707840, > threshold:       21381117, stored:       33437457
  | Task    93 total:      483707840, > threshold:       20991879, stored:       33186948
  | Task    94 total:      437336928, > threshold:       16007391, stored:       26995784
  | Task    95 total:      389753952, > threshold:       16488092, stored:       27074859
  | Task    96 total:      437336928, > threshold:       16007391, stored:       26995784
  | Task    97 total:      389753952, > threshold:       16488092, stored:       27074859
  | Task    98 total:      411232824, > threshold:       17304319, stored:       27971689
  | Task    99 total:      415858056, > threshold:       15246365, stored:       25787790
  | Task   100 total:      411232824, > threshold:       17304319, stored:       27971689
  | Task   101 total:      415858056, > threshold:       15246365, stored:       25787790
  | Task   102 total:      411232824, > threshold:       15863776, stored:       27108307
  | Task   103 total:      415858056, > threshold:       16534348, stored:       27046159
  | Task   104 total:      411232824, > threshold:       15863776, stored:       27108307
  | Task   105 total:      415858056, > threshold:       16534348, stored:       27046159
  | Task   106 total:      382914300, > threshold:       17492166, stored:       28383667
  | Task   107 total:      444176580, > threshold:       15027104, stored:       25706143
  | Task   108 total:      382914300, > threshold:       17492166, stored:       28383667
  | Task   109 total:      444176580, > threshold:       15027104, stored:       25706143
  | Task   110 total:      382914300, > threshold:       16832263, stored:       27310616
  | Task   111 total:      444176580, > threshold:       16051608, stored:       26736618
  | Task   112 total:      382914300, > threshold:       16832263, stored:       27310616
  | Task   113 total:      444176580, > threshold:       16051608, stored:       26736618
  | Task   114 total:      403599588, > threshold:       17066540, stored:       27675229
  | Task   115 total:      423491292, > threshold:       15448709, stored:       26144693
  | Task   116 total:      403599588, > threshold:       17066540, stored:       27675229
  | Task   117 total:      423491292, > threshold:       15448709, stored:       26144693
  | Task   118 total:      377495484, > threshold:       16502734, stored:       27417443
  | Task   119 total:      449595396, > threshold:       16033816, stored:       26643532
  | Task   120 total:      377495484, > threshold:       16502734, stored:       27417443
  | Task   121 total:      449595396, > threshold:       16033816, stored:       26643532
  | Task   122 total:      429703692, > threshold:       16088038, stored:       26672015
  | Task   123 total:      397387188, > threshold:       16548413, stored:       27442631
  | Task   124 total:      429703692, > threshold:       16088038, stored:       26672015
  | Task   125 total:      397387188, > threshold:       16548413, stored:       27442631
  | Task   126 total:      429703692, > threshold:       16308870, stored:       26392867
  | Task   127 total:      397387188, > threshold:       16619851, stored:       27403301
  | Task   128 total:      429703692, > threshold:       16308870, stored:       26392867
  | Task   129 total:      397387188, > threshold:       16619851, stored:       27403301
  | Task   130 total:      827090880, > threshold:       32894309, stored:       54047876
  | Task   131 total:      827090880, > threshold:       32894309, stored:       54047876
  | Task   132 total:      827090880, > threshold:       32549021, stored:       54071166
  | Task   133 total:      827090880, > threshold:       32549021, stored:       54071166
  | Task   134 total:      827090880, > threshold:       32452452, stored:       54060504
  | Task   135 total:      827090880, > threshold:       32452452, stored:       54060504
  | Task   136 total:      827090880, > threshold:       32493881, stored:       54041921
  | Task   137 total:      827090880, > threshold:       32493881, stored:       54041921
  | Task   138 total:      827090880, > threshold:       32402438, stored:       54068034
  | Task   139 total:      827090880, > threshold:       32402438, stored:       54068034
  | Task   140 total:      827090880, > threshold:       33283302, stored:       54155491
  | Task   141 total:      827090880, > threshold:       33283302, stored:       54155491
  | Task   142 total:      827090880, > threshold:       32538016, stored:       53759383
  | Task   143 total:      827090880, > threshold:       32538016, stored:       53759383
  | Task   144 total:      827090880, > threshold:       32608912, stored:       54115037
  | Task   145 total:      827090880, > threshold:       32608912, stored:       54115037
  | Task   146 total:      827090880, > threshold:       32442745, stored:       54042169
  | Task   147 total:      827090880, > threshold:       32442745, stored:       54042169
  | Task   148 total:      827090880, > threshold:       32195113, stored:       53773517
  | Task   149 total:      827090880, > threshold:       32195113, stored:       53773517
  | Task   150 total:      827090880, > threshold:       33274734, stored:       54156342
  | Task   151 total:      827090880, > threshold:       33274734, stored:       54156342
  | Task   152 total:      827090880, > threshold:       32818550, stored:       54207589
  | Task   153 total:      827090880, > threshold:       32818550, stored:       54207589
  | Task   154 total:      827090880, > threshold:       32421572, stored:       54153743
  | Task   155 total:      827090880, > threshold:       32421572, stored:       54153743
  | Task   156 total:      827090880, > threshold:       32921021, stored:       53796168
  | Task   157 total:      827090880, > threshold:       32921021, stored:       53796168
  | Task   158 total:      827090880, > threshold:       32388048, stored:       54068167
  | Task   159 total:      827090880, > threshold:       32388048, stored:       54068167
  --- Done init_fock_matrix_calculations
  Max. memory per node for ovlp3fn matrices:       46.098 GB
  Total memory for ovlp3fn matrices:      122.688 GB
  Size of ovlp3fn for atom   68340       4     293
  --- Calculating OVLP3FN
