------------------------------------------------------------
          Invoking FHI-aims ...

          When using FHI-aims, please cite the following reference:

            Volker Blum, Ralf Gehrke, Felix Hanke, Paula Havu,
            Ville Havu, Xinguo Ren, Karsten Reuter, and Matthias Scheffler,
            'Ab Initio Molecular Simulations with Numeric Atom-Centered Orbitals',
            Computer Physics Communications 180, 2175-2196 (2009)

          In addition, many other developments in FHI-aims are likely important for
          your particular application. A partial list of references is given at the end of
          this file. Thank you for giving credit to the authors of these developments.

          For any questions about FHI-aims, please visit our slack channel at

            https://fhi-aims.slack.com

          and our main development and support site at

            https://aims-git.rz-berlin.mpg.de .

          The latter site, in particular, has a wiki to collect information, as well
          as an issue tracker to log discussions, suggest improvements, and report issues
          or bugs. https://aims-git.rz-berlin.mpg.de is also the main development site
          of the project and all new and updated code versions can be obtained there.
          Please send an email to aims-coordinators@fhi-berlin.mpg.de and we will add
          you to these sites. They are for you and everyone is welcome there.

------------------------------------------------------------



  Date     :  20210714, Time     :  104637.428
  Time zero on CPU 1             :   0.506110000000000E-01  s.
  Internal wall clock time zero  :           395491597.428  s.

  FHI-aims created a unique identifier for this run for later identification
  aims_uuid : D6E38953-EE3D-46B2-A81F-4BBA8E24E5A7

  Build configuration of the current instance of FHI-aims
  -------------------------------------------------------
  FHI-aims version      : 210413
  Commit number         : e4873593e
  CMake host system     : Linux-4.12.14-122.57-default
  CMake version         : 3.5.2
  Fortran compiler      : /mpcdf/soft/SLE_12/packages/x86_64/intel_parallel_studio/2020.1/compilers_and_libraries_2020.1.217/linux/mpi/intel64/bin/mpiifort (Intel) version 19.1.0.20200306
  Fortran compiler flags: -O3 -ip -fp-model precise
  C compiler            : /mpcdf/soft/SLE_12/packages/x86_64/intel/19.1.1/bin/icc (Intel) version 19.1.0.20200306
  C compiler flags      : -O3 -ip -fp-model precise -std=gnu99
  C++ compiler          : /mpcdf/soft/SLE_12/packages/x86_64/intel/19.1.1/bin/icpc (Intel) version 19.1.0.20200306
  C++ compiler flags    : -O3 -ip -fp-model precise -std=gnu99
  Using MPI
  Using ScaLAPACK
  Using LibXC
  Using i-PI
  Using RLSY
  Linking against: /mpcdf/soft/SLE_12/packages/x86_64/intel_parallel_studio/2020.1/mkl/lib/intel64/libmkl_intel_lp64.so
                   /mpcdf/soft/SLE_12/packages/x86_64/intel_parallel_studio/2020.1/mkl/lib/intel64/libmkl_sequential.so
                   /mpcdf/soft/SLE_12/packages/x86_64/intel_parallel_studio/2020.1/mkl/lib/intel64/libmkl_core.so
                   /mpcdf/soft/SLE_12/packages/x86_64/intel_parallel_studio/2020.1/mkl/lib/intel64/libmkl_blacs_intelmpi_lp64.so
                   /mpcdf/soft/SLE_12/packages/x86_64/intel_parallel_studio/2020.1/mkl/lib/intel64/libmkl_scalapack_lp64.so

  Using       32 parallel tasks.
  Task        0 on host co1246 reporting.
  Task        1 on host co1246 reporting.
  Task        2 on host co1246 reporting.
  Task        3 on host co1246 reporting.
  Task        4 on host co1246 reporting.
  Task        5 on host co1246 reporting.
  Task        6 on host co1246 reporting.
  Task        7 on host co1246 reporting.
  Task        8 on host co1246 reporting.
  Task        9 on host co1246 reporting.
  Task       10 on host co1246 reporting.
  Task       11 on host co1246 reporting.
  Task       12 on host co1246 reporting.
  Task       13 on host co1246 reporting.
  Task       14 on host co1246 reporting.
  Task       15 on host co1246 reporting.
  Task       16 on host co1246 reporting.
  Task       17 on host co1246 reporting.
  Task       18 on host co1246 reporting.
  Task       19 on host co1246 reporting.
  Task       20 on host co1246 reporting.
  Task       21 on host co1246 reporting.
  Task       22 on host co1246 reporting.
  Task       23 on host co1246 reporting.
  Task       24 on host co1246 reporting.
  Task       25 on host co1246 reporting.
  Task       26 on host co1246 reporting.
  Task       27 on host co1246 reporting.
  Task       28 on host co1246 reporting.
  Task       29 on host co1246 reporting.
  Task       30 on host co1246 reporting.
  Task       31 on host co1246 reporting.

  Performing system and environment tests:
  | Environment variable OMP_NUM_THREADS correctly set to 1.
  | Checking for ScaLAPACK...
  | Testing pdtran()...
  | All pdtran() tests passed.

  Obtaining array dimensions for all initial allocations:
  
  -----------------------------------------------------------------------
  Parsing control.in (first pass over file, find array dimensions only).
  The contents of control.in will be repeated verbatim below
  unless switched off by setting 'verbatim_writeout .false.' .
  in the first line of control.in .
  -----------------------------------------------------------------------
  
  ##### Physical settings  ################
  xc                 pbe
  spin               none
  charge      0.0
  relativistic       atomic_zora scalar
  #elsi_restart read
  # SCF settings
  
  #relax_unit_cell full
  #vdw_correction_hirshfeld
  harmonic_length_scale 0.09
  energy_tolerance  1E-3
  occupation_type gaussian       0.01
  # k-grid settings  (to be adjusted)
  k_grid  8 8 4
  #empty_states 8
  #use_dipole_correction
  #include_spin_orbit non_self_consistent
  
  mixer   pulay
  n_max_pulay        12 # high for metal
  charge_mix_param   0.1 #low for metal
  many_body_dispersion_nl    beta=0.81
  ################################################################################
  #
  #  FHI-aims code project
  # Volker Blum, Fritz Haber Institute Berlin, 2009
  #
  #  Suggested "tight" defaults for S atom (to be pasted into control.in file)
  #
  #  Revised Jan 04, 2011, following tests (SiC) done by Lydia Nemec:
  #     d and g functions of tier 2 now enabled by default.
  #
  ################################################################################
    species        S
  #     global species definitions
      nucleus             16
      mass                32.065
  #
      l_hartree           6
  #
      cut_pot             4.0          2.0  1.0
      basis_dep_cutoff    1e-4
  #
      radial_base         44 7.0
      radial_multiplier   2
      angular_grids       specified
        division   0.4665  110
        division   0.5810  194
        division   0.7139  302
        division   0.8274  434
  #      division   0.9105  590
  #      division   1.0975  770
  #      division   1.2028  974
  #      outer_grid  974
        outer_grid  434
  ################################################################################
  #
  #  Definition of "minimal" basis
  #
  ################################################################################
  #     valence basis states
      valence      3  s   2.
      valence      3  p   4.
  #     ion occupancy
      ion_occ      3  s   1.
      ion_occ      3  p   3.
  ################################################################################
  #
  #  Suggested additional basis functions. For production calculations,
  #  uncomment them one after another (the most important basis functions are
  #  listed first).
  #
  #  Constructed for dimers: 1.6 A, 1.9 A, 2.5 A, 3.25 A, 4.0 A
  #
  ################################################################################
  #  "First tier" - improvements: -652.81 meV to -45.53 meV
       ionic 3 d auto
       hydro 2 p 1.8
       hydro 4 f 7
       ionic 3 s auto
  #  "Second tier" - improvements: -30.20 meV to -1.74 meV
       hydro 4 d 6.2
       hydro 5 g 10.8
  #     hydro 4 p 4.9
  #     hydro 5 f 10
  #     hydro 1 s 0.8
  #  "Third tier" - improvements: -1.04 meV to -0.20 meV
  #     hydro 3 d 3.9
  #     hydro 3 d 2.7
  #     hydro 5 g 12
  #     hydro 4 p 10.4
  #     hydro 5 f 12.4
  #     hydro 2 s 1.9
  #  "Fourth tier" - improvements: -0.35 meV to -0.06 meV
  #     hydro 4 d 10.4
  #     hydro 4 p 7.2
  #     hydro 4 d 10
  #     hydro 5 g 19.2
  #     hydro 4 s 12
  
  ################################################################################
  #
  # For methods that use the localized form of the "resolution of identity" for
  # the two-electron Coulomb operator (RI_method LVL), particularly Hartree-Fock and
  # hybrid density functional calculations, the highest accuracy can be obtained by
  # uncommenting the line beginning with "for_aux"  below, thus adding an extra g radial
  # function to the construction of the product basis set for the expansion.
  # See Ref. New J. Phys. 17, 093020 (2015) for more information, particularly Figs. 1 and 6.
  #
  ################################################################################
  #
  # for_aux hydro 5 g 6.0
  ################################################################################
  #
  #  FHI-aims code project
  # Volker Blum, Fritz Haber Institute Berlin, 2009
  #
  #  Suggested "tight" defaults for Mo atom (to be pasted into control.in file)
  #
  ################################################################################
    species        Mo
  #     global species definitions
      nucleus             42
      mass                95.94
  #
      l_hartree           6
  #
      cut_pot             4.0  2.0  1.0
      basis_dep_cutoff    1e-4
  #
      radial_base         59 7.0
      radial_multiplier   2
      angular_grids specified
        division   0.3117   50
        division   0.6750  110
        division   1.0351  194
        division   1.2073  302
        division   1.6402  434
  #      division   1.9185  590
  #      division   2.0237  770
  #      division   2.0980  974
  #      division   2.7972 1202
  #      outer_grid  974
        outer_grid  434
  ################################################################################
  #
  #  Definition of "minimal" basis
  #
  ################################################################################
  #     valence basis states
      valence      5  s   1.
      valence      4  p   6.
      valence      4  d   5.
  #     ion occupancy
      ion_occ     5  s   0.
      ion_occ     4  p   6.
      ion_occ     4  d   4.
  ################################################################################
  #
  #  Suggested additional basis functions. For production calculations,
  #  uncomment them one after another (the most important basis functions are
  #  listed first).
  #
  #  Constructed for dimers: 1.675 A, 1.9 A, 2.375 A, 3.00 A, 4.00 A
  #
  ################################################################################
  #  "First tier"  - max. impr. -711.23  meV, min. impr. -21.07 meV
       hydro 4 f 8.4
       hydro 3 d 2.8
       ionic 5 p auto
       hydro 5 g 12
       ionic 5 s auto
  #  "Second tier" - max. impr. -39.38  meV, min. impr. -2.68 meV
  #     hydro 4 f 12.4
  #     hydro 3 d 3.3
  #     hydro 6 h 17.2
  #     hydro 4 f 7.6
  #     hydro 3 p 3.0
  #     hydro 1 s 0.65
  #  "Third tier"  - max. impr. -5.50 meV, min. impr. -0.47 meV
  #     hydro 4 f 29.2
  #     hydro 5 g 11.2
  #     hydro 3 d 6.8
  #     hydro 6 h 14.8
  #     hydro 2 p 2.3
  #     hydro 4 s 3.8
  #  "Fourth tier"  - max. impr. -0.58 meV, min. impr. -0.19 meV
  #     hydro 5 f 6.8
  #     hydro 5 d 14.8
  #     hydro 6 s 7.8
  #     hydro 5 g 20.8
  #     hydro 5 d 10.4
  #     hydro 5 p 9.8
  #  Further functions - -0.17 meV and below
  #     hydro 5 d 3.2
  compute_forces .true.
  final_forces_cleaned .true.
  
  -----------------------------------------------------------------------
  Completed first pass over input file control.in .
  -----------------------------------------------------------------------
  
  
  -----------------------------------------------------------------------
  Parsing geometry.in (first pass over file, find array dimensions only).
  The contents of geometry.in will be repeated verbatim below
  unless switched off by setting 'verbatim_writeout .false.' .
  in the first line of geometry.in .
  -----------------------------------------------------------------------
  
  #
  # temporary structure-file for finite-difference calculation of forces
  # displacement   0.0020 of \# atom     0 direction     1
  #
  lattice_vector    3.08234366   -0.00000000   -0.00000000
  lattice_vector    0.00000000    3.08234366   -0.00000000
  lattice_vector   -0.00000000    0.00000000    3.08234366
  atom    0.00000000    0.00200000    0.00000000  Mo
  atom    1.54117183    1.54117183    1.54117183  Mo
  
  -----------------------------------------------------------------------
  Completed first pass over input file geometry.in .
  -----------------------------------------------------------------------
  

  Basic array size parameters:
  | Number of species                 :        2
  | Number of atoms                   :        2
  | Number of lattice vectors         :        3
  | Max. basis fn. angular momentum   :        4
  | Max. atomic/ionic basis occupied n:        5
  | Max. number of basis fn. types    :        3
  | Max. radial fns per species/type  :       10
  | Max. logarithmic grid size        :     1436
  | Max. radial integration grid size :      119
  | Max. angular integration grid size:      434
  | Max. angular grid division number :        8
  | Radial grid for Hartree potential :     1436
  | Number of spin channels           :        1

------------------------------------------------------------
          Reading file control.in.
------------------------------------------------------------
  XC: Using PBE gradient-corrected functionals.
  Spin treatment: No spin polarisation.
  Charge =   0.000000E+00: Neutral system requested explicitly.
  Scalar relativistic treatment of kinetic energy: on-site free-atom approximation to ZORA.
  Assuming qualitatively harmonic for steps shorter than   0.900000E-01 A.
  Max energy increase before discarding BFGS move:   0.100000E-02 eV
  Occupation type: Gaussian broadening, width =   0.100000E-01 eV.
  Found k-point grid:         8         8         4
  Using pulay charge density mixing.
  Pulay mixing - number of memorized iterations:   12
  Charge density mixing - mixing parameter:     0.1000
  Using libMBD for calculating MBD and TS energies
 
  Reading configuration options for species S                   .
  | Found nuclear charge :  16.0000
  | Found atomic mass :    32.0650000000000      amu
  | Found l_max for Hartree potential  :   6
  | Found cutoff potl. onset [A], width [A], scale factor :    4.00000    2.00000    1.00000
  | Threshold for basis-dependent cutoff potential is   0.100000E-03
  | Found data for basic radial integration grid :    44 points, outermost radius =    7.000 A
  | Found multiplier for basic radial grid :   2
  | Found angular grid specification: user-specified.
  | Specified grid contains     5 separate shells.
  | Check grid settings after all constraints further below.
  | Found free-atom valence shell :  3 s   2.000
  | Found free-atom valence shell :  3 p   4.000
  | Found free-ion valence shell :  3 s   1.000
  | Found free-ion valence shell :  3 p   3.000
  | Found ionic basis function :  3 d , default cutoff radius.
  | Found hydrogenic basis function :  2 p   1.800
  | Found hydrogenic basis function :  4 f   7.000
  | Found ionic basis function :  3 s , default cutoff radius.
  | Found hydrogenic basis function :  4 d   6.200
  | Found hydrogenic basis function :  5 g  10.800
  Species S                   : Missing cutoff potential type.
  Defaulting to exp(1/x)/(1-x)^2 type cutoff potential.
  Species S : No 'logarithmic' tag. Using default grid for free atom:
  | Default logarithmic grid data [bohr] : 0.1000E-03 0.1000E+03 0.1012E+01
  | Will include ionic basis functions of  2.0-fold positive S                    ion.
  Species S : On-site basis accuracy parameter (for Gram-Schmidt orthonormalisation) not specified.
  Using default value basis_acc =  0.1000000E-03.
  Species S                   : Using default innermost maximum threshold i_radial=  2 for radial functions.
  Species S                   : Default cutoff onset for free atom density etc. : 0.40000000E+01 AA.
  Species S                   : Basic radial grid will be enhanced according to radial_multiplier =   2, to contain    89 grid points.
 
  Reading configuration options for species Mo                  .
  | Found nuclear charge :  42.0000
  | Found atomic mass :    95.9400000000000      amu
  | Found l_max for Hartree potential  :   6
  | Found cutoff potl. onset [A], width [A], scale factor :    4.00000    2.00000    1.00000
  | Threshold for basis-dependent cutoff potential is   0.100000E-03
  | Found data for basic radial integration grid :    59 points, outermost radius =    7.000 A
  | Found multiplier for basic radial grid :   2
  | Found angular grid specification: user-specified.
  | Specified grid contains     6 separate shells.
  | Check grid settings after all constraints further below.
  | Found free-atom valence shell :  5 s   1.000
  | Found free-atom valence shell :  4 p   6.000
  | Found free-atom valence shell :  4 d   5.000
  | Found free-ion valence shell :  5 s   0.000
  | Found free-ion valence shell :  4 p   6.000
  | Found free-ion valence shell :  4 d   4.000
  | Found hydrogenic basis function :  4 f   8.400
  | Found hydrogenic basis function :  3 d   2.800
  | Found ionic basis function :  5 p , default cutoff radius.
  | Found hydrogenic basis function :  5 g  12.000
  | Found ionic basis function :  5 s , default cutoff radius.
  Species Mo                  : Missing cutoff potential type.
  Defaulting to exp(1/x)/(1-x)^2 type cutoff potential.
  Species Mo: No 'logarithmic' tag. Using default grid for free atom:
  | Default logarithmic grid data [bohr] : 0.1000E-03 0.1000E+03 0.1012E+01
  | Will include ionic basis functions of  2.0-fold positive Mo                   ion.
  Species Mo: On-site basis accuracy parameter (for Gram-Schmidt orthonormalisation) not specified.
  Using default value basis_acc =  0.1000000E-03.
  Species Mo                  : Using default innermost maximum threshold i_radial=  2 for radial functions.
  Species Mo                  : Default cutoff onset for free atom density etc. : 0.40000000E+01 AA.
  Species Mo                  : Basic radial grid will be enhanced according to radial_multiplier =   2, to contain   119 grid points.
  Forces will be computed.
  Cleaning forces before final output.
 
  Finished reading input file 'control.in'.
 
------------------------------------------------------------


------------------------------------------------------------
          Reading geometry description geometry.in.
------------------------------------------------------------
  | The smallest distance between any two atoms is         2.66823371 AA.
  | The first atom of this pair is atom number                      2 .
  | The second atom of this pair is atom number                     1 .
  | Wigner-Seitz cell of the first atom image           0     1     0 .
  | (The Wigner-Seitz cell of the second atom is 0 0 0  by definition.)

  Symmetry information by spglib:
  | Precision set to  0.1E-04
  | Number of Operations  : 16
  | Space group           : 129
  | International         : P4/nmm
  | Schoenflies           : D4h^7
  Input structure read successfully.
  The structure contains        2 atoms,  and a total of         84.000 electrons.

  Input geometry:
  | Unit cell:
  |        3.08234366        0.00000000        0.00000000
  |        0.00000000        3.08234366        0.00000000
  |        0.00000000        0.00000000        3.08234366
  | Atomic structure:
  |       Atom                x [A]            y [A]            z [A]
  |    1: Species Mo            0.00000000        0.00200000        0.00000000
  |    2: Species Mo            1.54117183        1.54117183        1.54117183

  Lattice parameters for 3D lattice (in Angstroms) :     3.082344    3.082344    3.082344
  Angle(s) between unit vectors (in degrees)       :    90.000000   90.000000   90.000000


  Quantities derived from the lattice vectors:
  | Reciprocal lattice vector 1:  2.038444  0.000000  0.000000
  | Reciprocal lattice vector 2:  0.000000  2.038444  0.000000
  | Reciprocal lattice vector 3:  0.000000  0.000000  2.038444
  | Unit cell volume                               :   0.292849E+02  A^3

  Fractional coordinates:
                         L1                L2                L3
       atom_frac         0.00000000        0.00064886        0.00000000  Mo
       atom_frac         0.50000000        0.50000000        0.50000000  Mo

 
  Finished reading input file 'control.in'.
 

------------------------------------------------------------
          Reading geometry description geometry.in.
------------------------------------------------------------
 
  Consistency checks for stacksize environment parameter are next.
 
  | Maximum stacksize for task 0: unlimited
  | Maximum stacksize for task 1: unlimited
  | Maximum stacksize for task 2: unlimited
  | Maximum stacksize for task 3: unlimited
  | Maximum stacksize for task 4: unlimited
  | Maximum stacksize for task 5: unlimited
  | Maximum stacksize for task 6: unlimited
  | Maximum stacksize for task 7: unlimited
  | Maximum stacksize for task 8: unlimited
  | Maximum stacksize for task 9: unlimited
  | Maximum stacksize for task 10: unlimited
  | Maximum stacksize for task 11: unlimited
  | Maximum stacksize for task 12: unlimited
  | Maximum stacksize for task 13: unlimited
  | Maximum stacksize for task 14: unlimited
  | Maximum stacksize for task 15: unlimited
  | Maximum stacksize for task 16: unlimited
  | Maximum stacksize for task 17: unlimited
  | Maximum stacksize for task 18: unlimited
  | Maximum stacksize for task 19: unlimited
  | Maximum stacksize for task 20: unlimited
  | Maximum stacksize for task 21: unlimited
  | Maximum stacksize for task 22: unlimited
  | Maximum stacksize for task 23: unlimited
  | Maximum stacksize for task 24: unlimited
  | Maximum stacksize for task 25: unlimited
  | Maximum stacksize for task 26: unlimited
  | Maximum stacksize for task 27: unlimited
  | Maximum stacksize for task 28: unlimited
  | Maximum stacksize for task 29: unlimited
  | Maximum stacksize for task 30: unlimited
  | Maximum stacksize for task 31: unlimited
  | Current stacksize for task 0: unlimited
  | Current stacksize for task 1: unlimited
  | Current stacksize for task 2: unlimited
  | Current stacksize for task 3: unlimited
  | Current stacksize for task 4: unlimited
  | Current stacksize for task 5: unlimited
  | Current stacksize for task 6: unlimited
  | Current stacksize for task 7: unlimited
  | Current stacksize for task 8: unlimited
  | Current stacksize for task 9: unlimited
  | Current stacksize for task 10: unlimited
  | Current stacksize for task 11: unlimited
  | Current stacksize for task 12: unlimited
  | Current stacksize for task 13: unlimited
  | Current stacksize for task 14: unlimited
  | Current stacksize for task 15: unlimited
  | Current stacksize for task 16: unlimited
  | Current stacksize for task 17: unlimited
  | Current stacksize for task 18: unlimited
  | Current stacksize for task 19: unlimited
  | Current stacksize for task 20: unlimited
  | Current stacksize for task 21: unlimited
  | Current stacksize for task 22: unlimited
  | Current stacksize for task 23: unlimited
  | Current stacksize for task 24: unlimited
  | Current stacksize for task 25: unlimited
  | Current stacksize for task 26: unlimited
  | Current stacksize for task 27: unlimited
  | Current stacksize for task 28: unlimited
  | Current stacksize for task 29: unlimited
  | Current stacksize for task 30: unlimited
  | Current stacksize for task 31: unlimited
 
  Consistency checks for the contents of control.in are next.
 
  MPI_IN_PLACE appears to work with this MPI implementation.
  | Keeping use_mpi_in_place .true. (see manual).
  Target number of points in a grid batch is not set. Defaulting to  100
  Method for grid partitioning is not set. Defaulting to parallel hash+maxmin partitioning.
  Batch size limit is not set. Defaulting to    200
  By default, will store active basis functions for each batch.
  If in need of memory, prune_basis_once .false. can be used to disable this option.
  communication_type for Hartree potential was not specified.
  Defaulting to calc_hartree .
  Pulay mixer: Number of initial linear mixing iterations not set.
  Defaulting to    0 iterations.
  Work space size for distributed Hartree potential not set.
  Defaulting to   0.200000E+03 MB.
  Algorithm-dependent basis array size parameters:
  | n_max_pulay                         :       12
  Maximum number of self-consistency iterations not provided.
  Presetting  1000 iterations.
  Presetting      1001 iterations before the initial mixing cycle
  is restarted anyway using the sc_init_iter criterion / keyword.
  Presetting a factor      1.000 between actual scf density residual
  and density convergence criterion sc_accuracy_rho below which sc_init_iter
  takes no effect.
 * No s.c.f. convergence criteria (sc_accuracy_*) were provided in control.in.
 * The run will proceed with a reasonable default guess, but please check whether.
 * the s.c.f. cycles seem to take too much or too little time.
  Geometry relaxation not requested: no relaxation will be performed.
Requested energy tolerance for BFGS, but no relaxation. Ignoring input.
 * Notice: The s.c.f. convergence criterion sc_accuracy_rho was not provided.
 * We used to stop in this case, and ask the user to provide reasonable
 * scf convergence criteria. However, this led some users to employ criteria
 * that led to extremely long run times, e.g., for simple relaxation.
 * We now preset a default value for sc_accuracy_rho if it is not set.
 * You may still wish to check if this setting is too tight or too loose for your needs.
 * Based on n_atoms, FHI-aims chose sc_accuracy_rho =  0.100000E-05 .
  Force calculation: scf convergence accuracy of forces not set.
  Defaulting to 'sc_accuracy_forces not_checked'.
  Handling of forces: Unphysical translation and rotation will be removed from forces.
  No accuracy limit for integral partition fn. given. Defaulting to  0.1000E-14.
  No threshold value for u(r) in integrations given. Defaulting to  0.1000E-05.
  No accuracy for occupation numbers given. Defaulting to  0.1000E-12.
  No threshold value for occupation numbers given. Defaulting to  0.0000E+00.
  No accuracy for fermi level given. Defaulting to  0.1000E-19.
  Maximum # of iterations to find E_F not set. Defaulting to  200.
  Preferred method for the eigenvalue solver ('KS_method') not specified in 'control.in'.
  Defaulting to serial version, LAPACK (via ELSI), since more k-points than CPUs available.
  Will not use alltoall communication since running on < 1024 CPUs.
  Threshold for basis singularities not set.
  Default threshold for basis singularities:  0.1000E-04
  partition_type (choice of integration weights) for integrals was not specified.
  | Using a version of the partition function of Stratmann and coworkers ('stratmann_sparse').
  | At each grid point, the set of atoms used to build the partition table is smoothly restricted to
  | only those atoms whose free-atom density would be non-zero at that grid point.
  Partitioning for Hartree potential was not defined. Using partition_type for integrals.
  | Adjusted default value of keyword multip_moments_threshold to:       0.10000000E-11
  | This value may affect high angular momentum components of the Hartree potential in periodic systems.
  Angular momentum expansion for Kerker preconditioner not set explicitly.
  | Using default value of   0
  No explicit requirement for turning off preconditioner.
  | By default, it will be turned off when the charge convergence reaches
  | sc_accuracy_rho  =   0.100000E-05
  No special mixing parameter while Kerker preconditioner is on.
  Using default: charge_mix_param =     0.1000.
  No q(lm)/r^(l+1) cutoff set for long-range Hartree potential.
  | Using default value of  0.100000E-09 .
  | Verify using the multipole_threshold keyword.
  Defaulting to new monopole extrapolation.
  Density update method: automatic selection selected.
  Using density matrix based charge density update.
  Using density matrix based charge density update.
  Using packed matrix style: index .
  Defaulting to use time-reversal symmetry for k-point grid.
  Charge integration errors on the 3D integration grid will be compensated
  by explicit normalization and distribution of residual charges.
  Use the "compensate_multipole_errors" flag to change this behaviour.
  Set 'collect_eigenvectors' to be '.true.' for all serial calculations. This is mandatory.
  Set 'collect_eigenvectors' to be '.true.' for KS_method lapack_fast and serial.
 
  Consistency checks for the contents of geometry.in are next.
 

  Range separation radius for Ewald summation (hartree_convergence_parameter):      3.45918746 bohr.
  Number of empty states per atom not set in control.in - providing a guess from actual geometry.
  | Total number of empty states used during s.c.f. cycle:       11
  If you use a very high smearing, use empty_states (per atom!) in control.in to increase this value.

  Structure-dependent array size parameters: 
  | Maximum number of distinct radial functions  :       26
  | Maximum number of basis functions            :       98
  | Number of Kohn-Sham states (occupied + empty):       53
------------------------------------------------------------

------------------------------------------------------------
          Preparing all fixed parts of the calculation.
------------------------------------------------------------
  Determining machine precision:
    2.225073858507201E-308
  Setting up grids for atomic and cluster calculations.

  Creating wave function, potential, and density for free atoms.

  Species: S

  List of occupied orbitals and eigenvalues:
    n    l              occ      energy [Ha]    energy [eV]
    1    0           2.0000       -88.680731     -2413.1255
    2    0           2.0000        -7.781719      -211.7513
    3    0           2.0000        -0.633662       -17.2428
    2    1           6.0000        -5.751976      -156.5192
    3    1           4.0000        -0.257086        -6.9957


  Species: Mo

  List of occupied orbitals and eigenvalues:
    n    l              occ      energy [Ha]    energy [eV]
    1    0           2.0000      -745.344654    -20281.8600
    2    0           2.0000      -103.288246     -2810.6162
    3    0           2.0000       -17.516687      -476.6533
    4    0           2.0000        -2.358559       -64.1796
    5    0           1.0000        -0.145159        -3.9500
    2    1           6.0000       -92.308627     -2511.8455
    3    1           6.0000       -13.936005      -379.2180
    4    1           6.0000        -1.408138       -38.3174
    3    2          10.0000        -8.119011      -220.9295
    4    2           5.0000        -0.132984        -3.6187


  Adding cutoff potential to free-atom effective potential.
  Creating fixed part of basis set: Ionic, confined, hydrogenic.
 
  S                    ion:

  List of free ionic orbitals and eigenvalues:
    n    l      energy [Ha]    energy [eV]
    1    0       -89.703778     -2440.9640
    2    0        -8.775428      -238.7916
    3    0        -1.470343       -40.0101
    2    1        -6.747660      -183.6132
    3    1        -1.048627       -28.5346


  List of ionic basis orbitals and eigenvalues:
    n    l      energy [Ha]    energy [eV]    outer radius [A]
    3    2        -0.495605       -13.4861       5.386362
    3    0        -1.470336       -40.0099       3.967934

 
  S                    hydrogenic:
 
  List of hydrogenic basis orbitals: 
    n    l      effective z      eigenvalue [eV]  inner max. [A]     outer max. [A]     outer radius [A]   
    2    1         1.800000       -11.0118           1.168531           1.168531           5.452614
    4    3         7.000000       -41.6672           1.212182           1.212182           5.066981
    4    2         6.200000       -32.6848           0.582121           1.814567           5.386362
    5    4        10.800000       -63.4785           1.227092           1.227092           4.766538
 
 
  Mo                   ion:

  List of free ionic orbitals and eigenvalues:
    n    l      energy [Ha]    energy [eV]
    1    0      -746.048685    -20301.0176
    2    0      -103.980912     -2829.4646
    3    0       -18.206601      -495.4268
    4    0        -3.040545       -82.7374
    2    1       -93.001013     -2530.6863
    3    1       -14.625827      -397.9890
    4    1        -2.084855       -56.7318
    3    2        -8.808854      -239.7011
    4    2        -0.765435       -20.8285


  List of ionic basis orbitals and eigenvalues:
    n    l      energy [Ha]    energy [eV]    outer radius [A]
    5    1        -0.465587       -12.6693       5.456393
    5    0        -0.650331       -17.6964       5.390095

 
  Mo                   hydrogenic:
 
  List of hydrogenic basis orbitals: 
    n    l      effective z      eigenvalue [eV]  inner max. [A]     outer max. [A]     outer radius [A]   
    4    3         8.400000       -60.0010           1.009788           1.009788           4.487018
    3    2         2.800000       -11.8048           1.687401           1.687401           5.456393
    5    4        12.000000       -78.3687           1.100005           1.100005           4.432498
 
  Creating atomic-like basis functions for current effective potential.

  Species S                   :

  List of atomic basis orbitals and eigenvalues:
    n    l      energy [Ha]    energy [eV]    outer radius [A]
    1    0       -88.680731     -2413.1255       0.682391
    2    0        -7.781719      -211.7513       2.289014
    3    0        -0.633662       -17.2428       5.256262
    2    1        -5.751976      -156.5192       2.555240
    3    1        -0.257086        -6.9957       5.386362


  Species Mo                  :

  List of atomic basis orbitals and eigenvalues:
    n    l      energy [Ha]    energy [eV]    outer radius [A]
    1    0      -745.344654    -20281.8600       0.247552
    2    0      -103.288246     -2810.6162       0.682864
    3    0       -17.516687      -476.6533       1.626637
    4    0        -2.358559       -64.1796       4.220963
    5    0        -0.145159        -3.9500       5.456393
    2    1       -92.308627     -2511.8455       0.699766
    3    1       -13.936005      -379.2180       1.793761
    4    1        -1.408138       -38.3174       4.828511
    3    2        -8.119011      -220.9295       2.181285
    4    2        -0.132984        -3.6187       5.390095

  Assembling full basis from fixed parts.
  | Species S :   atomic orbital   1 s accepted.
  | Species S :   atomic orbital   2 s accepted.
  | Species S :    ionic orbital   3 s accepted.
  | Species S :   atomic orbital   3 s accepted.
  | Species S :   atomic orbital   2 p accepted.
  | Species S :   atomic orbital   3 p accepted.
  | Species S :    hydro orbital   2 p accepted.
  | Species S :    ionic orbital   3 d accepted.
  | Species S :    hydro orbital   4 d accepted.
  | Species S :    hydro orbital   4 f accepted.
  | Species S :    hydro orbital   5 g accepted.
  | Species Mo :   atomic orbital   1 s accepted.
  | Species Mo :   atomic orbital   2 s accepted.
  | Species Mo :   atomic orbital   3 s accepted.
  | Species Mo :   atomic orbital   4 s accepted.
  | Species Mo :    ionic orbital   5 s accepted.
  | Species Mo :   atomic orbital   5 s accepted.
  | Species Mo :   atomic orbital   2 p accepted.
  | Species Mo :   atomic orbital   3 p accepted.
  | Species Mo :   atomic orbital   4 p accepted.
  | Species Mo :    ionic orbital   5 p accepted.
  | Species Mo :   atomic orbital   3 d accepted.
  | Species Mo :   atomic orbital   4 d accepted.
  | Species Mo :    hydro orbital   3 d accepted.
  | Species Mo :    hydro orbital   4 f accepted.
  | Species Mo :    hydro orbital   5 g accepted.
 
  Basis size parameters after reduction:
  | Total number of radial functions:       26
  | Total number of basis functions :       98
 
  Per-task memory consumption for arrays in subroutine allocate_ext:
  |           9.561824MB.
  Testing on-site integration grid accuracy.
  |  Species  Function  <phi|h_atom|phi> (log., in eV)  <phi|h_atom|phi> (rad., in eV)
           1        1              -2413.1254568977              -2413.1254096663
           1        2               -211.7513411281               -211.7513404762
           1        3                -16.9725280787                -16.9725279206
           1        4                  7.6024436204                  7.6024549059
           1        5               -156.5192206929               -156.5192205451
           1        6                 -6.9959757887                 -6.9959777655
           1        7                  6.8896462808                  6.8895564741
           1        8                  6.0214250550                  6.0214220200
           1        9                 19.6206468977                 19.6206494558
           1       10                 24.7008710786                 24.7008710738
           1       11                 47.5292252001                 47.5292260486
           2       12             -20281.8599610543             -20281.8584300616
           2       13              -2810.6161812280              -2810.6161551921
           2       14               -476.6533163555               -476.6533136395
           2       15                -64.1796433667                -64.1796426456
           2       16                 -3.3691762756                 -3.3691802887
           2       17                  4.4704608512                  4.4699102345
           2       18              -2511.8455406047              -2511.8455385741
           2       19               -379.2179896350               -379.2179882338
           2       20                -38.3173891619                -38.3173886619
           2       21                  0.2493245095                  0.2492931069
           2       22               -220.9295301098               -220.9295297081
           2       23                 -3.6195697699                 -3.6195754704
           2       24                  7.1428000922                  7.1426882355
           2       25                 23.3975871087                 23.3975871819
           2       26                 50.2449608881                 50.2449608586

  Preparing densities etc. for the partition functions (integrals / Hartree potential).
 Frequency grid relative error: 0.12418110983958286E-009                        
   
 Will use parallel mode: k_points  

  Preparations completed.
  max(cpu_time)          :      0.441 s.
  Wall clock time (cpu1) :      0.442 s.
------------------------------------------------------------

------------------------------------------------------------
          Begin self-consistency loop: Initialization.

          Date     :  20210714, Time     :  104637.942
------------------------------------------------------------

  Initializing index lists of integration centers etc. from given atomic structure:
  Mapping all atomic coordinates to central unit cell.

  Initializing the k-points
  Using symmetry for reducing the k-points
  | k-points reduced from:      256 to      132
  | Number of k-points                             :       132
  The eigenvectors in the calculations are COMPLEX.
  | K-points in task   0:         4
  | K-points in task   1:         5
  | K-points in task   2:         5
  | K-points in task   3:         5
  | K-points in task   4:         5
  | K-points in task   5:         4
  | K-points in task   6:         4
  | K-points in task   7:         4
  | K-points in task   8:         4
  | K-points in task   9:         4
  | K-points in task  10:         4
  | K-points in task  11:         4
  | K-points in task  12:         4
  | K-points in task  13:         4
  | K-points in task  14:         4
  | K-points in task  15:         4
  | K-points in task  16:         4
  | K-points in task  17:         4
  | K-points in task  18:         4
  | K-points in task  19:         4
  | K-points in task  20:         4
  | K-points in task  21:         4
  | K-points in task  22:         4
  | K-points in task  23:         4
  | K-points in task  24:         4
  | K-points in task  25:         4
  | K-points in task  26:         4
  | K-points in task  27:         4
  | K-points in task  28:         4
  | K-points in task  29:         4
  | K-points in task  30:         4
  | K-points in task  31:         4
  | Number of basis functions in the Hamiltonian integrals :      4369
  | Number of basis functions in a single unit cell        :        98
  | Number of centers in hartree potential         :      1014
  | Number of centers in hartree multipole         :       700
  | Number of centers in electron density summation:       484
  | Number of centers in basis integrals           :       544
  | Number of centers in integrals                 :       145
  | Number of centers in hamiltonian               :       484
  | Consuming        581 KiB for k_phase.
  | Number of super-cells (origin) [n_cells]                     :        2197
  | Number of super-cells (after PM_index) [n_cells]             :         282
  | Number of super-cells in hamiltonian [n_cells_in_hamiltonian]:         282
  | Size of matrix packed + index [n_hamiltonian_matrix_size] :      498887
  | Estimated reciprocal-space cutoff momentum G_max:         2.84528403 bohr^-1 .
  | Reciprocal lattice points for long-range Hartree potential:      80
  Partitioning the integration grid into batches with parallel hashing+maxmin method.
  | Number of batches:      706
  | Maximal batch size:     102
  | Minimal batch size:      50
  | Average batch size:      70.805
  | Standard deviation of batch sizes:      13.993

  Integration load balanced across    32 MPI tasks.
  Work distribution over tasks is as follows:
  Task     0 has       1543 integration points.
  Task     1 has       1558 integration points.
  Task     2 has       1564 integration points.
  Task     3 has       1569 integration points.
  Task     4 has       1554 integration points.
  Task     5 has       1558 integration points.
  Task     6 has       1570 integration points.
  Task     7 has       1556 integration points.
  Task     8 has       1565 integration points.
  Task     9 has       1573 integration points.
  Task    10 has       1563 integration points.
  Task    11 has       1567 integration points.
  Task    12 has       1560 integration points.
  Task    13 has       1570 integration points.
  Task    14 has       1556 integration points.
  Task    15 has       1553 integration points.
  Task    16 has       1562 integration points.
  Task    17 has       1551 integration points.
  Task    18 has       1560 integration points.
  Task    19 has       1600 integration points.
  Task    20 has       1584 integration points.
  Task    21 has       1566 integration points.
  Task    22 has       1570 integration points.
  Task    23 has       1550 integration points.
  Task    24 has       1584 integration points.
  Task    25 has       1567 integration points.
  Task    26 has       1566 integration points.
  Task    27 has       1554 integration points.
  Task    28 has       1542 integration points.
  Task    29 has       1533 integration points.
  Task    30 has       1560 integration points.
  Task    31 has       1560 integration points.
  Initializing partition tables, free-atom densities, potentials, etc. across the integration grid (initialize_grid_storage).
  | initialize_grid_storage: Actual outermost partition radius vs. multipole_radius_free
  | (-- VB: in principle, multipole_radius_free should be larger, hence this output)
  | Species        1: Confinement radius =              6.000000000000000 AA, multipole_radius_free =              6.012827091137924 AA.
  | Species        1: outer_partition_radius set to              6.012827091137924 AA .
  | Species        2: Confinement radius =              6.000000000000000 AA, multipole_radius_free =              6.016994434057369 AA.
  | Species        2: outer_partition_radius set to              6.016994434057369 AA .
  | The sparse table of interatomic distances needs       2829.19 kbyte instead of      2367.49 kbyte of memory.
  | Using the partition_type stratmann_smoother will reduce your memory usage.
  | Net number of integration points:    49988
  | of which are non-zero points    :    36760
  | Numerical average free-atom electrostatic potential    :    -32.44964928 eV
  Renormalizing the initial density to the exact electron count on the 3D integration grid.
  | Initial density: Formal number of electrons (from input files) :      84.0000000000
  | Integrated number of electrons on 3D grid     :      84.0001016635
  | Charge integration error                      :       0.0001016635
  | Normalization factor for density and gradient :       0.9999987897
  Renormalizing the free-atom superposition density to the exact electron count on the 3D integration grid.
  | Formal number of electrons (from input files) :      84.0000000000
  | Integrated number of electrons on 3D grid     :      84.0001016635
  | Charge integration error                      :       0.0001016635
  | Normalization factor for density and gradient :       0.9999987897
  Obtaining max. number of non-zero basis functions in each batch (get_n_compute_maxes).
  | Maximal number of non-zero basis functions:     1686 in task     0
  | Maximal number of non-zero basis functions:     1686 in task     1
  | Maximal number of non-zero basis functions:     1675 in task     2
  | Maximal number of non-zero basis functions:     1621 in task     3
  | Maximal number of non-zero basis functions:     1660 in task     4
  | Maximal number of non-zero basis functions:     1647 in task     5
  | Maximal number of non-zero basis functions:     1690 in task     6
  | Maximal number of non-zero basis functions:     1657 in task     7
  | Maximal number of non-zero basis functions:     1657 in task     8
  | Maximal number of non-zero basis functions:     1651 in task     9
  | Maximal number of non-zero basis functions:     1628 in task    10
  | Maximal number of non-zero basis functions:     1672 in task    11
  | Maximal number of non-zero basis functions:     1660 in task    12
  | Maximal number of non-zero basis functions:     1693 in task    13
  | Maximal number of non-zero basis functions:     1650 in task    14
  | Maximal number of non-zero basis functions:     1654 in task    15
  | Maximal number of non-zero basis functions:     1650 in task    16
  | Maximal number of non-zero basis functions:     1645 in task    17
  | Maximal number of non-zero basis functions:     1629 in task    18
  | Maximal number of non-zero basis functions:     1636 in task    19
  | Maximal number of non-zero basis functions:     1630 in task    20
  | Maximal number of non-zero basis functions:     1683 in task    21
  | Maximal number of non-zero basis functions:     1655 in task    22
  | Maximal number of non-zero basis functions:     1657 in task    23
  | Maximal number of non-zero basis functions:     1661 in task    24
  | Maximal number of non-zero basis functions:     1643 in task    25
  | Maximal number of non-zero basis functions:     1650 in task    26
  | Maximal number of non-zero basis functions:     1675 in task    27
  | Maximal number of non-zero basis functions:     1625 in task    28
  | Maximal number of non-zero basis functions:     1650 in task    29
  | Maximal number of non-zero basis functions:     1672 in task    30
  | Maximal number of non-zero basis functions:     1678 in task    31
  Allocating        0.317 MB for KS_eigenvector_complex
  Integrating Hamiltonian matrix: batch-based integration.
  Time summed over all CPUs for integration: real work       23.398 s, elapsed       25.248 s
  Integrating overlap matrix.
  Time summed over all CPUs for integration: real work       18.974 s, elapsed       20.330 s
  Decreasing sparse matrix size:
  | Tolerance:  0.1000E-12
  Hamiltonian matrix
  | Array has   355940 nonzero elements out of   498887 elements
  | Sparsity factor is 0.287
  Overlap matrix
  | Array has   330258 nonzero elements out of   498887 elements
  | Sparsity factor is 0.338
  New size of hamiltonian matrix:      357619

  Updating Kohn-Sham eigenvalues and eigenvectors using ELSI and the (modified) LAPACK eigensolver.
  Singularity check in k-point 32, task 0 (analysis for other k-points/tasks may follow below):
  Overlap matrix is not singular
  | Lowest and highest eigenvalues :  0.4952E-04,  0.7098E+01
  Finished singularity check of overlap matrix
  | Time :     0.001 s
  Starting LAPACK eigensolver
  Finished Cholesky decomposition
  | Time :     0.000 s
  Finished transformation to standard eigenproblem
  | Time :     0.000 s
  Finished solving standard eigenproblem
  | Time :     0.002 s
  Finished back-transformation of eigenvectors
  | Time :     0.000 s

  Obtaining occupation numbers and chemical potential using ELSI.
  | Chemical potential (Fermi level):    -6.39249769 eV
  Writing Kohn-Sham eigenvalues.
  K-point:       1 at    0.000000    0.000000    0.000000 (in units of recip. lattice)

  State    Occupation    Eigenvalue [Ha]    Eigenvalue [eV]
      1       2.00000        -745.391511       -20283.13500
      2       2.00000        -745.391511       -20283.13500
      3       2.00000        -103.335825        -2811.91086
      4       2.00000        -103.335825        -2811.91086
      5       2.00000         -92.356146        -2513.13859
      6       2.00000         -92.356146        -2513.13859
      7       2.00000         -92.356146        -2513.13859
      8       2.00000         -92.356146        -2513.13859
      9       2.00000         -92.356146        -2513.13859
     10       2.00000         -92.356146        -2513.13859
     11       2.00000         -17.567224         -478.02849
     12       2.00000         -17.567224         -478.02849
     13       2.00000         -13.986647         -380.59602
     14       2.00000         -13.986647         -380.59602
     15       2.00000         -13.986647         -380.59602
     16       2.00000         -13.986647         -380.59602
     17       2.00000         -13.986647         -380.59602
     18       2.00000         -13.986647         -380.59602
     19       2.00000          -8.169562         -222.30509
     20       2.00000          -8.169562         -222.30509
     21       2.00000          -8.169562         -222.30509
     22       2.00000          -8.169561         -222.30506
     23       2.00000          -8.169561         -222.30506
     24       2.00000          -8.169561         -222.30506
     25       2.00000          -8.169521         -222.30399
     26       2.00000          -8.169521         -222.30398
     27       2.00000          -8.169521         -222.30398
     28       2.00000          -8.169521         -222.30398
     29       2.00000          -2.445651          -66.54955
     30       2.00000          -2.422174          -65.91069
     31       2.00000          -1.509305          -41.07029
     32       2.00000          -1.509305          -41.07029
     33       2.00000          -1.509305          -41.07027
     34       2.00000          -1.462264          -39.79022
     35       2.00000          -1.462264          -39.79022
     36       2.00000          -1.462264          -39.79022
     37       2.00000          -0.531623          -14.46621
     38       2.00000          -0.466653          -12.69827
     39       2.00000          -0.466652          -12.69823
     40       2.00000          -0.283981           -7.72752
     41       2.00000          -0.283980           -7.72748
     42       2.00000          -0.283980           -7.72748
     43       0.00000          -0.161011           -4.38132
     44       0.00000          -0.161008           -4.38125
     45       0.00000          -0.055363           -1.50650
     46       0.00000          -0.055363           -1.50650
     47       0.00000          -0.055361           -1.50644
     48       0.00000           0.105557            2.87234
     49       0.00000           0.105557            2.87234
     50       0.00000           0.105559            2.87242
     51       0.00000           0.367143            9.99048
     52       0.00000           0.367144            9.99051
     53       0.00000           0.367144            9.99051

  What follows are estimated values for band gap, HOMO, LUMO, etc.
  | They are estimated on a discrete k-point grid and not necessarily exact.
  | For converged numbers, create a DOS and/or band structure plot on a denser k-grid.

  Highest occupied state (VBM) at     -6.42004223 eV (relative to internal zero)
  | Occupation number:      1.99990196
  | K-point:      31 at    0.125000    0.500000    0.000000 (in units of recip. lattice)

  Lowest unoccupied state (CBM) at    -6.36666758 eV (relative to internal zero)
  | Occupation number:      0.00025927
  | K-point:      43 at    0.250000    0.000000    0.000000 (in units of recip. lattice)

  ESTIMATED overall HOMO-LUMO gap:      0.05337465 eV between HOMO at k-point 31 and LUMO at k-point 43
  | This appears to be an indirect band gap.
  | Smallest direct gap :      0.39511094 eV for k_point 34 at    0.125000    0.625000    0.000000 (in units of recip. lattice)
  However, the gap value is rather small. Since we use a finite k-point grid,
  this material is most likely metallic (in the sense that there are states
  at or near the Fermi level). A DOS and/or band structure plot is required
  for an unambiguous distinction.
  Calculating total energy contributions from superposition of free atom densities.

  Total energy components:
  | Sum of eigenvalues            :       -4936.58595907 Ha     -134331.33864960 eV
  | XC energy correction          :        -248.89019036 Ha       -6772.64666826 eV
  | XC potential correction       :         324.39528951 Ha        8827.24495293 eV
  | Free-atom electrostatic energy:       -3314.64793342 Ha      -90196.15939848 eV
  | Hartree energy correction     :           0.00000000 Ha           0.00000000 eV
  | vdW energy correction         :           0.00000000 Ha           0.00000000 eV
  | Entropy correction            :          -0.00000001 Ha          -0.00000017 eV
  | ---------------------------
  | Total energy                  :       -8175.72879334 Ha     -222472.89976341 eV
  | Total energy, T -> 0          :       -8175.72879335 Ha     -222472.89976358 eV  <-- do not rely on this value for anything but (periodic) metals
  | Electronic free energy        :       -8175.72879336 Ha     -222472.89976375 eV

  Derived energy quantities:
  | Kinetic energy                :        8431.96506213 Ha      229445.44339617 eV
  | Electrostatic energy          :      -16358.80366511 Ha     -445145.69649132 eV
  | Energy correction for multipole
  | error in Hartree potential    :           0.00000000 Ha           0.00000000 eV
  | Sum of eigenvalues per atom                           :      -67165.66932480 eV
  | Total energy (T->0) per atom                          :     -111236.44988179 eV  <-- do not rely on this value for anything but (periodic) metals
  | Electronic free energy per atom                       :     -111236.44988187 eV
  Initialize hartree_potential_storage
  Max. number of atoms included in rho_multipole:            2

  End scf initialization - timings             :  max(cpu_time)    wall_clock(cpu1)
  | Time for scf. initialization               :        1.808 s           1.811 s
  | Boundary condition initialization          :        0.084 s           0.084 s
  | Integration                                :        1.445 s           1.446 s
  | Solution of K.-S. eqns.                    :        0.041 s           0.037 s
  | Grid partitioning                          :        0.030 s           0.030 s
  | Preloading free-atom quantities on grid    :        0.184 s           0.185 s
  | Free-atom superposition energy             :        0.014 s           0.014 s
  | Total energy evaluation                    :        0.000 s           0.001 s

  Partial memory accounting:
  | Current value for overall tracked memory usage:
  |   Minimum:        7.139 MB (on task  0)
  |   Maximum:        7.218 MB (on task  1)
  |   Average:        7.149 MB
  | Peak value for overall tracked memory usage:
  |   Minimum:       33.781 MB (on task  3 after allocating wave)
  |   Maximum:       35.692 MB (on task 13 after allocating wave)
  |   Average:       34.702 MB
  | Largest tracked array allocation so far:
  |   Minimum:       20.047 MB (hamiltonian_shell on task  3)
  |   Maximum:       21.868 MB (hamiltonian_shell on task 13)
  |   Average:       20.952 MB
  Note:  These values currently only include a subset of arrays which are explicitly tracked.
  The "true" memory usage will be greater.
------------------------------------------------------------
  Evaluating new KS density using the density matrix
  Evaluating density matrix
  Time summed over all CPUs for getting density from density matrix: real work       34.731 s, elapsed       37.837 s
  Integration grid: deviation in total charge (<rho> - N_e) =   2.842171E-14

  Time for density update prior                :  max(cpu_time)    wall_clock(cpu1)
  | self-consistency iterative process         :        1.195 s           1.197 s

------------------------------------------------------------
          Begin self-consistency iteration #    1

  Date     :  20210714, Time     :  104640.950
------------------------------------------------------------
  Pulay mixing of updated and previous charge densities.
  Renormalizing the density to the exact electron count on the 3D integration grid.
  | Formal number of electrons (from input files) :      84.0000000000
  | Integrated number of electrons on 3D grid     :      84.0002652446
  | Charge integration error                      :       0.0002652446
  | Normalization factor for density and gradient :       0.9999968423

  Evaluating partitioned Hartree potential by multipole expansion.
  | Original multipole sum: apparent total charge =  -0.634874E-13
  | Sum of charges compensated after spline to logarithmic grids =  -0.830235E-08
  | Analytical far-field extrapolation by fixed multipoles:
  | Hartree multipole sum: apparent total charge =   0.000000E+00
  Summing up the Hartree potential.
  Time summed over all CPUs for potential: real work        3.986 s, elapsed        4.373 s
  | RMS charge density error from multipole expansion :   0.976656E-03
  | Average real-space part of the electrostatic potential :     -0.14283056 eV

  Integrating Hamiltonian matrix: batch-based integration.
  Time summed over all CPUs for integration: real work       22.683 s, elapsed       24.339 s

  Updating Kohn-Sham eigenvalues and eigenvectors using ELSI and the (modified) LAPACK eigensolver.
  Starting LAPACK eigensolver
  Finished Cholesky decomposition
  | Time :     0.000 s
  Finished transformation to standard eigenproblem
  | Time :     0.000 s
  Finished solving standard eigenproblem
  | Time :     0.002 s
  Finished back-transformation of eigenvectors
  | Time :     0.000 s

  Obtaining occupation numbers and chemical potential using ELSI.
  | Chemical potential (Fermi level):    -6.48477048 eV
  Writing Kohn-Sham eigenvalues.
  K-point:       1 at    0.000000    0.000000    0.000000 (in units of recip. lattice)

  State    Occupation    Eigenvalue [Ha]    Eigenvalue [eV]
      1       2.00000        -745.410115       -20283.64124
      2       2.00000        -745.410115       -20283.64124
      3       2.00000        -103.354518        -2812.41954
      4       2.00000        -103.354518        -2812.41954
      5       2.00000         -92.374953        -2513.65038
      6       2.00000         -92.374953        -2513.65038
      7       2.00000         -92.374948        -2513.65022
      8       2.00000         -92.374948        -2513.65022
      9       2.00000         -92.374948        -2513.65022
     10       2.00000         -92.374948        -2513.65022
     11       2.00000         -17.582660         -478.44853
     12       2.00000         -17.582660         -478.44853
     13       2.00000         -14.002090         -381.01625
     14       2.00000         -14.002090         -381.01625
     15       2.00000         -14.002078         -381.01592
     16       2.00000         -14.002078         -381.01592
     17       2.00000         -14.002078         -381.01592
     18       2.00000         -14.002078         -381.01592
     19       2.00000          -8.185295         -222.73320
     20       2.00000          -8.185295         -222.73320
     21       2.00000          -8.185286         -222.73297
     22       2.00000          -8.185286         -222.73297
     23       2.00000          -8.185239         -222.73168
     24       2.00000          -8.185239         -222.73167
     25       2.00000          -8.185238         -222.73165
     26       2.00000          -8.185238         -222.73165
     27       2.00000          -8.185227         -222.73137
     28       2.00000          -8.185226         -222.73134
     29       2.00000          -2.454979          -66.80336
     30       2.00000          -2.431795          -66.17251
     31       2.00000          -1.517303          -41.28791
     32       2.00000          -1.517280          -41.28728
     33       2.00000          -1.517279          -41.28727
     34       2.00000          -1.470804          -40.02260
     35       2.00000          -1.470779          -40.02193
     36       2.00000          -1.470779          -40.02192
     37       2.00000          -0.532557          -14.49162
     38       2.00000          -0.468795          -12.75655
     39       2.00000          -0.468779          -12.75613
     40       2.00000          -0.288422           -7.84836
     41       2.00000          -0.288420           -7.84832
     42       2.00000          -0.288409           -7.84802
     43       0.00000          -0.165745           -4.51016
     44       0.00000          -0.165722           -4.50953
     45       0.00000          -0.061545           -1.67473
     46       0.00000          -0.061543           -1.67467
     47       0.00000          -0.061529           -1.67428
     48       0.00000           0.103630            2.81991
     49       0.00000           0.103636            2.82007
     50       0.00000           0.103638            2.82015
     51       0.00000           0.365997            9.95927
     52       0.00000           0.365998            9.95930
     53       0.00000           0.365998            9.95932

  What follows are estimated values for band gap, HOMO, LUMO, etc.
  | They are estimated on a discrete k-point grid and not necessarily exact.
  | For converged numbers, create a DOS and/or band structure plot on a denser k-grid.

  Highest occupied state (VBM) at     -6.50232720 eV (relative to internal zero)
  | Occupation number:      1.98696810
  | K-point:      79 at    0.375000    0.500000    0.000000 (in units of recip. lattice)

  Lowest unoccupied state (CBM) at    -6.46652579 eV (relative to internal zero)
  | Occupation number:      0.00987466
  | K-point:      43 at    0.250000    0.000000    0.000000 (in units of recip. lattice)

  ESTIMATED overall HOMO-LUMO gap:      0.03580141 eV between HOMO at k-point 79 and LUMO at k-point 43
  | This appears to be an indirect band gap.
  | Smallest direct gap :      0.39545752 eV for k_point 28 at    0.125000    0.375000    0.000000 (in units of recip. lattice)
  However, the gap value is rather small. Since we use a finite k-point grid,
  this material is most likely metallic (in the sense that there are states
  at or near the Fermi level). A DOS and/or band structure plot is required
  for an unambiguous distinction.

  Total energy components:
  | Sum of eigenvalues            :       -4937.69249858 Ha     -134361.44912157 eV
  | XC energy correction          :        -248.83974996 Ha       -6771.27411494 eV
  | XC potential correction       :         324.33004560 Ha        8825.46957576 eV
  | Free-atom electrostatic energy:       -3314.64793342 Ha      -90196.15939848 eV
  | Hartree energy correction     :           1.13035494 Ha          30.75852290 eV
  | vdW energy correction         :           0.00000000 Ha           0.00000000 eV
  | Entropy correction            :          -0.00000017 Ha          -0.00000457 eV
  | ---------------------------
  | Total energy                  :       -8175.71978141 Ha     -222472.65453634 eV
  | Total energy, T -> 0          :       -8175.71978158 Ha     -222472.65454091 eV  <-- do not rely on this value for anything but (periodic) metals
  | Electronic free energy        :       -8175.71978175 Ha     -222472.65454548 eV

  Derived energy quantities:
  | Kinetic energy                :        8431.50850134 Ha      229433.01974504 eV
  | Electrostatic energy          :      -16358.38853280 Ha     -445134.40016644 eV
  | Energy correction for multipole
  | error in Hartree potential    :          -0.00003257 Ha          -0.00088635 eV
  | Sum of eigenvalues per atom                           :      -67180.72456078 eV
  | Total energy (T->0) per atom                          :     -111236.32727045 eV  <-- do not rely on this value for anything but (periodic) metals
  | Electronic free energy per atom                       :     -111236.32727274 eV
  Evaluating new KS density using the density matrix
  Evaluating density matrix
  Time summed over all CPUs for getting density from density matrix: real work       34.844 s, elapsed       38.009 s
  Integration grid: deviation in total charge (<rho> - N_e) =   5.684342E-14

  Self-consistency convergence accuracy:
  | Change of charge density      :  0.2374E+00
  | Change of sum of eigenvalues  : -0.3011E+02 eV
  | Change of total energy        :  0.2452E+00 eV


------------------------------------------------------------
  End self-consistency iteration #     1       :  max(cpu_time)    wall_clock(cpu1)
  | Time for this iteration                    :        2.204 s           2.206 s
  | Charge density update                      :        1.200 s           1.201 s
  | Density mixing & preconditioning           :        0.059 s           0.059 s
  | Hartree multipole update                   :        0.002 s           0.002 s
  | Hartree multipole summation                :        0.141 s           0.142 s
  | Integration                                :        0.771 s           0.772 s
  | Solution of K.-S. eqns.                    :        0.030 s           0.029 s
  | Total energy evaluation                    :        0.001 s           0.000 s

  Partial memory accounting:
  | Current value for overall tracked memory usage:
  |   Minimum:        7.139 MB (on task  0)
  |   Maximum:        7.218 MB (on task  1)
  |   Average:        7.149 MB
  | Peak value for overall tracked memory usage:
  |   Minimum:       34.834 MB (on task  3 after allocating gradient_basis_wave)
  |   Maximum:       36.912 MB (on task 13 after allocating gradient_basis_wave)
  |   Average:       35.838 MB
  | Largest tracked array allocation so far:
  |   Minimum:       20.047 MB (hamiltonian_shell on task  3)
  |   Maximum:       21.868 MB (hamiltonian_shell on task 13)
  |   Average:       20.952 MB
  Note:  These values currently only include a subset of arrays which are explicitly tracked.
  The "true" memory usage will be greater.
------------------------------------------------------------

------------------------------------------------------------
          Begin self-consistency iteration #    2

  Date     :  20210714, Time     :  104643.157
------------------------------------------------------------
  Pulay mixing of updated and previous charge densities.
  Renormalizing the density to the exact electron count on the 3D integration grid.
  | Formal number of electrons (from input files) :      84.0000000000
  | Integrated number of electrons on 3D grid     :      84.0019904932
  | Charge integration error                      :       0.0019904932
  | Normalization factor for density and gradient :       0.9999763042

  Evaluating partitioned Hartree potential by multipole expansion.
  | Original multipole sum: apparent total charge =  -0.180949E-13
  | Sum of charges compensated after spline to logarithmic grids =  -0.548380E-07
  | Analytical far-field extrapolation by fixed multipoles:
  | Hartree multipole sum: apparent total charge =   0.000000E+00
  Summing up the Hartree potential.
  Time summed over all CPUs for potential: real work        4.493 s, elapsed        4.878 s
  | RMS charge density error from multipole expansion :   0.778172E-02
  | Average real-space part of the electrostatic potential :     -1.13544039 eV

  Integrating Hamiltonian matrix: batch-based integration.
  Time summed over all CPUs for integration: real work       22.687 s, elapsed       24.354 s

  Updating Kohn-Sham eigenvalues and eigenvectors using ELSI and the (modified) LAPACK eigensolver.
  Starting LAPACK eigensolver
  Finished Cholesky decomposition
  | Time :     0.001 s
  Finished transformation to standard eigenproblem
  | Time :     0.000 s
  Finished solving standard eigenproblem
  | Time :     0.001 s
  Finished back-transformation of eigenvectors
  | Time :     0.001 s

  Obtaining occupation numbers and chemical potential using ELSI.
  | Chemical potential (Fermi level):    -7.19249343 eV
  What follows are estimated values for band gap, HOMO, LUMO, etc.
  | They are estimated on a discrete k-point grid and not necessarily exact.
  | For converged numbers, create a DOS and/or band structure plot on a denser k-grid.

  Highest occupied state (VBM) at     -7.21722833 eV (relative to internal zero)
  | Occupation number:      1.99953132
  | K-point:     125 at    0.875000    0.000000    0.750000 (in units of recip. lattice)

  Lowest unoccupied state (CBM) at    -7.16964823 eV (relative to internal zero)
  | Occupation number:      0.00123445
  | K-point:      43 at    0.250000    0.000000    0.000000 (in units of recip. lattice)

  ESTIMATED overall HOMO-LUMO gap:      0.04758010 eV between HOMO at k-point 125 and LUMO at k-point 43
  | This appears to be an indirect band gap.
  | Smallest direct gap :      0.39450968 eV for k_point 34 at    0.125000    0.625000    0.000000 (in units of recip. lattice)
  However, the gap value is rather small. Since we use a finite k-point grid,
  this material is most likely metallic (in the sense that there are states
  at or near the Fermi level). A DOS and/or band structure plot is required
  for an unambiguous distinction.

  Checking to see if s.c.f. parameters should be adjusted.

  Total energy components:
  | Sum of eigenvalues            :       -4945.14030377 Ha     -134564.11421246 eV
  | XC energy correction          :        -248.51484265 Ha       -6762.43293735 eV
  | XC potential correction       :         323.90759339 Ha        8813.97406633 eV
  | Free-atom electrostatic energy:       -3314.64793342 Ha      -90196.15939848 eV
  | Hartree energy correction     :           8.70500082 Ha         236.87512450 eV
  | vdW energy correction         :           0.00000000 Ha           0.00000000 eV
  | Entropy correction            :          -0.00000002 Ha          -0.00000053 eV
  | ---------------------------
  | Total energy                  :       -8175.69048563 Ha     -222471.85735746 eV
  | Total energy, T -> 0          :       -8175.69048565 Ha     -222471.85735799 eV  <-- do not rely on this value for anything but (periodic) metals
  | Electronic free energy        :       -8175.69048567 Ha     -222471.85735852 eV

  Derived energy quantities:
  | Kinetic energy                :        8428.60668330 Ha      229354.05725862 eV
  | Electrostatic energy          :      -16355.78232628 Ha     -445063.48167873 eV
  | Energy correction for multipole
  | error in Hartree potential    :          -0.00020977 Ha          -0.00570802 eV
  | Sum of eigenvalues per atom                           :      -67282.05710623 eV
  | Total energy (T->0) per atom                          :     -111235.92867900 eV  <-- do not rely on this value for anything but (periodic) metals
  | Electronic free energy per atom                       :     -111235.92867926 eV
  Evaluating new KS density using the density matrix
  Evaluating density matrix
  Time summed over all CPUs for getting density from density matrix: real work       34.805 s, elapsed       37.953 s
  Integration grid: deviation in total charge (<rho> - N_e) =   2.842171E-14

  Self-consistency convergence accuracy:
  | Change of charge density      :  0.2095E+00
  | Change of sum of eigenvalues  : -0.2027E+03 eV
  | Change of total energy        :  0.7972E+00 eV


------------------------------------------------------------
  End self-consistency iteration #     2       :  max(cpu_time)    wall_clock(cpu1)
  | Time for this iteration                    :        2.214 s           2.216 s
  | Charge density update                      :        1.198 s           1.199 s
  | Density mixing & preconditioning           :        0.057 s           0.057 s
  | Hartree multipole update                   :        0.002 s           0.001 s
  | Hartree multipole summation                :        0.157 s           0.157 s
  | Integration                                :        0.770 s           0.771 s
  | Solution of K.-S. eqns.                    :        0.030 s           0.030 s
  | Total energy evaluation                    :        0.001 s           0.001 s

  Partial memory accounting:
  | Current value for overall tracked memory usage:
  |   Minimum:        7.140 MB (on task  0)
  |   Maximum:        7.219 MB (on task  1)
  |   Average:        7.150 MB
  | Peak value for overall tracked memory usage:
  |   Minimum:       34.835 MB (on task  3 after allocating gradient_basis_wave)
  |   Maximum:       36.913 MB (on task 13 after allocating gradient_basis_wave)
  |   Average:       35.839 MB
  | Largest tracked array allocation so far:
  |   Minimum:       20.047 MB (hamiltonian_shell on task  3)
  |   Maximum:       21.868 MB (hamiltonian_shell on task 13)
  |   Average:       20.952 MB
  Note:  These values currently only include a subset of arrays which are explicitly tracked.
  The "true" memory usage will be greater.
------------------------------------------------------------

------------------------------------------------------------
          Begin self-consistency iteration #    3

  Date     :  20210714, Time     :  104645.373
------------------------------------------------------------
  Pulay mixing of updated and previous charge densities.
  Renormalizing the density to the exact electron count on the 3D integration grid.
  | Formal number of electrons (from input files) :      84.0000000000
  | Integrated number of electrons on 3D grid     :      84.0001224224
  | Charge integration error                      :       0.0001224224
  | Normalization factor for density and gradient :       0.9999985426

  Evaluating partitioned Hartree potential by multipole expansion.
  | Original multipole sum: apparent total charge =  -0.331592E-13
  | Sum of charges compensated after spline to logarithmic grids =  -0.548203E-07
  | Analytical far-field extrapolation by fixed multipoles:
  | Hartree multipole sum: apparent total charge =   0.000000E+00
  Summing up the Hartree potential.
  Time summed over all CPUs for potential: real work        4.506 s, elapsed        4.872 s
  | RMS charge density error from multipole expansion :   0.751162E-02
  | Average real-space part of the electrostatic potential :     -1.08825795 eV

  Integrating Hamiltonian matrix: batch-based integration.
  Time summed over all CPUs for integration: real work       22.664 s, elapsed       24.314 s

  Updating Kohn-Sham eigenvalues and eigenvectors using ELSI and the (modified) LAPACK eigensolver.
  Starting LAPACK eigensolver
  Finished Cholesky decomposition
  | Time :     0.001 s
  Finished transformation to standard eigenproblem
  | Time :     0.000 s
  Finished solving standard eigenproblem
  | Time :     0.002 s
  Finished back-transformation of eigenvectors
  | Time :     0.000 s

  Obtaining occupation numbers and chemical potential using ELSI.
  | Chemical potential (Fermi level):    -7.14289356 eV
  What follows are estimated values for band gap, HOMO, LUMO, etc.
  | They are estimated on a discrete k-point grid and not necessarily exact.
  | For converged numbers, create a DOS and/or band structure plot on a denser k-grid.

  Highest occupied state (VBM) at     -7.16301658 eV (relative to internal zero)
  | Occupation number:      1.99557034
  | K-point:      21 at    0.125000    0.000000    0.750000 (in units of recip. lattice)

  Lowest unoccupied state (CBM) at    -7.12527666 eV (relative to internal zero)
  | Occupation number:      0.01272387
  | K-point:       2 at    0.000000    0.000000    0.250000 (in units of recip. lattice)

  ESTIMATED overall HOMO-LUMO gap:      0.03773992 eV between HOMO at k-point 21 and LUMO at k-point 2
  | This appears to be an indirect band gap.
  | Smallest direct gap :      0.39376570 eV for k_point 34 at    0.125000    0.625000    0.000000 (in units of recip. lattice)
  However, the gap value is rather small. Since we use a finite k-point grid,
  this material is most likely metallic (in the sense that there are states
  at or near the Fermi level). A DOS and/or band structure plot is required
  for an unambiguous distinction.

  Total energy components:
  | Sum of eigenvalues            :       -4944.50245300 Ha     -134546.75740967 eV
  | XC energy correction          :        -248.54517204 Ha       -6763.25824207 eV
  | XC potential correction       :         323.94650888 Ha        8815.03301066 eV
  | Free-atom electrostatic energy:       -3314.64793342 Ha      -90196.15939848 eV
  | Hartree energy correction     :           8.05854989 Ha         219.28429968 eV
  | vdW energy correction         :           0.00000000 Ha           0.00000000 eV
  | Entropy correction            :          -0.00000020 Ha          -0.00000554 eV
  | ---------------------------
  | Total energy                  :       -8175.69049968 Ha     -222471.85773988 eV
  | Total energy, T -> 0          :       -8175.69049989 Ha     -222471.85774541 eV  <-- do not rely on this value for anything but (periodic) metals
  | Electronic free energy        :       -8175.69050009 Ha     -222471.85775095 eV

  Derived energy quantities:
  | Kinetic energy                :        8429.14670568 Ha      229368.75201509 eV
  | Electrostatic energy          :      -16356.29203332 Ha     -445077.35151289 eV
  | Energy correction for multipole
  | error in Hartree potential    :          -0.00019456 Ha          -0.00529417 eV
  | Sum of eigenvalues per atom                           :      -67273.37870483 eV
[...]
  | error in Hartree potential    :          -0.00015596 Ha          -0.00424395 eV
  | Sum of eigenvalues per atom                           :      -67263.24198467 eV
  | Total energy (T->0) per atom                          :     -111235.92637138 eV  <-- do not rely on this value for anything but (periodic) metals
  | Electronic free energy per atom                       :     -111235.92637263 eV
  Evaluating new KS density using the density matrix
  Evaluating density matrix
  Time summed over all CPUs for getting density from density matrix: real work       34.752 s, elapsed       37.887 s
  
  Evaluating density-matrix-based force terms: batch-based integration
  Evaluating density matrix
  Evaluating density matrix
  Integration grid: deviation in total charge (<rho> - N_e) =   1.136868E-13

  atomic forces [eV/Ang]:
  -----------------------
  atom #    1
   Hellmann-Feynman              :  0.378610E-06 -0.226194E+00 -0.241151E-06
   Ionic forces                  :  0.000000E+00  0.000000E+00  0.000000E+00
   Multipole                     :  0.225338E-10  0.636675E-03  0.312828E-10
   Pulay + GGA                   : -0.753836E-05  0.213054E+00 -0.548814E-05
   Van der Waals                 :  0.000000E+00  0.000000E+00  0.000000E+00
   ----------------------------------------------------------------
   Total forces(   1)            : -0.715973E-05 -0.125038E-01 -0.572926E-05
  atom #    2
   Hellmann-Feynman              : -0.486969E-06  0.226194E+00 -0.676846E-06
   Ionic forces                  :  0.000000E+00  0.000000E+00  0.000000E+00
   Multipole                     : -0.311821E-10 -0.636675E-03 -0.479528E-10
   Pulay + GGA                   :  0.231741E-05 -0.213055E+00 -0.123179E-04
   Van der Waals                 :  0.000000E+00  0.000000E+00  0.000000E+00
   ----------------------------------------------------------------
   Total forces(   2)            :  0.183041E-05  0.125030E-01 -0.129948E-04


  Self-consistency convergence accuracy:
  | Change of charge density      :  0.6247E-06
  | Change of sum of eigenvalues  : -0.6416E-04 eV
  | Change of total energy        :  0.6410E-08 eV
  | Change of forces              :  0.2256E+00 eV/A

  Writing Kohn-Sham eigenvalues.
  K-point:       1 at    0.000000    0.000000    0.000000 (in units of recip. lattice)

  State    Occupation    Eigenvalue [Ha]    Eigenvalue [eV]
      1       2.00000        -745.490036       -20285.81601
      2       2.00000        -745.490036       -20285.81601
      3       2.00000        -103.445581        -2814.89747
      4       2.00000        -103.445581        -2814.89747
      5       2.00000         -92.465143        -2516.10456
      6       2.00000         -92.465143        -2516.10456
      7       2.00000         -92.465143        -2516.10456
      8       2.00000         -92.465143        -2516.10455
      9       2.00000         -92.465071        -2516.10259
     10       2.00000         -92.465071        -2516.10259
     11       2.00000         -17.669803         -480.81981
     12       2.00000         -17.669803         -480.81981
     13       2.00000         -14.089176         -383.38600
     14       2.00000         -14.089176         -383.38600
     15       2.00000         -14.089176         -383.38600
     16       2.00000         -14.089176         -383.38600
     17       2.00000         -14.089023         -383.38182
     18       2.00000         -14.089023         -383.38182
     19       2.00000          -8.273882         -225.14377
     20       2.00000          -8.273881         -225.14377
     21       2.00000          -8.273706         -225.13900
     22       2.00000          -8.273706         -225.13899
     23       2.00000          -8.272732         -225.11249
     24       2.00000          -8.272731         -225.11247
     25       2.00000          -8.272653         -225.11035
     26       2.00000          -8.272653         -225.11034
     27       2.00000          -8.272652         -225.11033
     28       2.00000          -8.272652         -225.11032
     29       2.00000          -2.517456          -68.50347
     30       2.00000          -2.496130          -67.92316
     31       2.00000          -1.571387          -42.75963
     32       2.00000          -1.571387          -42.75963
     33       2.00000          -1.570854          -42.74512
     34       2.00000          -1.528392          -41.58967
     35       2.00000          -1.528392          -41.58966
     36       2.00000          -1.527819          -41.57406
     37       2.00000          -0.536971          -14.61174
     38       2.00000          -0.483418          -13.15448
     39       2.00000          -0.482739          -13.13600
     40       2.00000          -0.318998           -8.68038
     41       2.00000          -0.318765           -8.67404
     42       2.00000          -0.318764           -8.67401
     43       0.00000          -0.198497           -5.40139
     44       0.00000          -0.197781           -5.38188
     45       0.00000          -0.103748           -2.82313
     46       0.00000          -0.103415           -2.81406
     47       0.00000          -0.103413           -2.81401
     48       0.00000           0.092276            2.51096
     49       0.00000           0.092380            2.51379
     50       0.00000           0.092382            2.51386
     51       0.00000           0.358842            9.76458
     52       0.00000           0.359188            9.77400
     53       0.00000           0.359189            9.77403

  What follows are estimated values for band gap, HOMO, LUMO, etc.
  | They are estimated on a discrete k-point grid and not necessarily exact.
  | For converged numbers, create a DOS and/or band structure plot on a denser k-grid.

  Highest occupied state (VBM) at     -7.20231227 eV (relative to internal zero)
  | Occupation number:      1.99667142
  | K-point:      25 at    0.125000    0.250000    0.000000 (in units of recip. lattice)

  Lowest unoccupied state (CBM) at    -7.16433326 eV (relative to internal zero)
  | Occupation number:      0.01487527
  | K-point:       2 at    0.000000    0.000000    0.250000 (in units of recip. lattice)

  ESTIMATED overall HOMO-LUMO gap:      0.03797901 eV between HOMO at k-point 25 and LUMO at k-point 2
  | This appears to be an indirect band gap.
  | Smallest direct gap :      0.38933116 eV for k_point 34 at    0.125000    0.625000    0.000000 (in units of recip. lattice)
  However, the gap value is rather small. Since we use a finite k-point grid,
  this material is most likely metallic (in the sense that there are states
  at or near the Fermi level). A DOS and/or band structure plot is required
  for an unambiguous distinction.

  Self-consistency cycle converged.


------------------------------------------------------------
  End self-consistency iteration #    19       :  max(cpu_time)    wall_clock(cpu1)
  | Time for this iteration                    :       16.941 s          16.953 s
  | Charge density & force component update    :       15.457 s          15.468 s
  | Density mixing                             :        0.001 s           0.000 s
  | Hartree multipole update                   :        0.002 s           0.002 s
  | Hartree multipole summation                :        0.681 s           0.682 s
  | Integration                                :        0.769 s           0.769 s
  | Solution of K.-S. eqns.                    :        0.030 s           0.030 s
  | Total energy evaluation                    :        0.000 s           0.000 s

  Partial memory accounting:
  | Current value for overall tracked memory usage:
  |   Minimum:        7.143 MB (on task  0)
  |   Maximum:        7.223 MB (on task  1)
  |   Average:        7.153 MB
  | Peak value for overall tracked memory usage:
  |   Minimum:       52.499 MB (on task  3 after allocating d_wave)
  |   Maximum:       55.361 MB (on task 13 after allocating d_wave)
  |   Average:       53.896 MB
  | Largest tracked array allocation so far:
  |   Minimum:       20.047 MB (hamiltonian_shell on task  3)
  |   Maximum:       21.868 MB (hamiltonian_shell on task 13)
  |   Average:       20.952 MB
  Note:  These values currently only include a subset of arrays which are explicitly tracked.
  The "true" memory usage will be greater.
------------------------------------------------------------
  Obtaining max. number of non-zero basis functions in each batch .
  Evaluating KS electron density on previously omitted grid points, using the density matrix.
  Evaluating density matrix

  Entering Libmbd.
  Libmbd: VdW method: mbd-nl
  Libmbd: Evaluating kinetic energy density...

  Evaluating density matrix

  Libmbd: Performing Hirshfeld analysis...
  Libmbd: Calculating MBD energy...
  Libmbd: Evaluated energy: -0.54963039003036188E-001

  Leaving Libmbd.


  Total energy components:
  | Sum of eigenvalues            :       -4943.75741776 Ha     -134526.48396934 eV
  | XC energy correction          :        -248.59612470 Ha       -6764.64473432 eV
  | XC potential correction       :         324.00892988 Ha        8816.73157228 eV
  | Free-atom electrostatic energy:       -3314.64793342 Ha      -90196.15939848 eV
  | Hartree energy correction     :           7.30223005 Ha         198.70378959 eV
  | vdW energy correction         :          -0.05496304 Ha          -1.49562039 eV
  | Entropy correction            :          -0.00000009 Ha          -0.00000249 eV
  | ---------------------------
  | Total energy                  :       -8175.74527899 Ha     -222473.34836067 eV
  | Total energy, T -> 0          :       -8175.74527908 Ha     -222473.34836315 eV  <-- do not rely on this value for anything but (periodic) metals
  | Electronic free energy        :       -8175.74527917 Ha     -222473.34836564 eV

  Derived energy quantities:
  | Kinetic energy                :        8431.13390515 Ha      229422.82646406 eV
  | Electrostatic energy          :      -16358.22809641 Ha     -445130.03447002 eV
  | Energy correction for multipole
  | error in Hartree potential    :          -0.00015596 Ha          -0.00424395 eV
  | Sum of eigenvalues per atom                           :      -67263.24198467 eV
  | Total energy (T->0) per atom                          :     -111236.67418158 eV  <-- do not rely on this value for anything but (periodic) metals
  | Electronic free energy per atom                       :     -111236.67418282 eV

  atomic forces [eV/Ang]:
  -----------------------
  atom #    1
   Hellmann-Feynman              :  0.378610E-06 -0.226194E+00 -0.241151E-06
   Ionic forces                  :  0.000000E+00  0.000000E+00  0.000000E+00
   Multipole                     :  0.225338E-10  0.636675E-03  0.312828E-10
   Pulay + GGA                   : -0.753836E-05  0.213054E+00 -0.548814E-05
   Van der Waals                 : -0.226963E-17 -0.754598E-03 -0.113137E-16
   ----------------------------------------------------------------
   Total forces(   1)            : -0.715973E-05 -0.132584E-01 -0.572926E-05
  atom #    2
   Hellmann-Feynman              : -0.486969E-06  0.226194E+00 -0.676846E-06
   Ionic forces                  :  0.000000E+00  0.000000E+00  0.000000E+00
   Multipole                     : -0.311821E-10 -0.636675E-03 -0.479528E-10
   Pulay + GGA                   :  0.231741E-05 -0.213055E+00 -0.123179E-04
   Van der Waals                 :  0.134524E-16  0.754598E-03  0.918219E-17
   ----------------------------------------------------------------
   Total forces(   2)            :  0.183041E-05  0.132576E-01 -0.129948E-04

  Timings for VdW correction (Tkatchenko-Scheffler 2009 or later):
  | CPU time:        1.902 s, Wall clock time:        1.904 s.
  Removing unitary transformations (pure translations, rotations) from forces on atoms.
  Atomic forces before filtering:
  | Net force on center of mass :  -0.532932E-05 -0.753597E-06 -0.187241E-04 eV/A
  Atomic forces after filtering:
  | Net force on center of mass :  -0.136113E-20 -0.278760E-17 -0.612509E-20 eV/A

  Energy and forces in a compact form:
  | Total energy uncorrected      :         -0.222473348360665E+06 eV
  | Total energy corrected        :         -0.222473348363155E+06 eV  <-- do not rely on this value for anything but (periodic) metals
  | Electronic free energy        :         -0.222473348365645E+06 eV
  Total atomic forces (unitary forces cleaned) [eV/Ang]:
  |    1         -0.449506739580122E-05         -0.132579856065653E-01          0.363277650034400E-05
  |    2          0.449506739580122E-05          0.132579856065653E-01         -0.363277650034401E-05

  ------------------------------------ 
  Start decomposition of the XC Energy 
  ------------------------------------ 
  X and C from original XC functional choice 
  Hartree-Fock Energy :          0.000000000 Ha              0.000000000 eV
  X Energy            :       -244.169803998 Ha          -6644.198419871 eV
  C Energy            :         -4.426320699 Ha           -120.446314451 eV
  Total XC Energy     :       -248.596124696 Ha          -6764.644734322 eV
  ------------------------------------ 
  LDA X and C from self-consistent density 
  X Energy LDA        :       -232.315682366 Ha          -6321.631358241 eV
  C Energy LDA        :         -7.831193931 Ha           -213.097629140 eV
  ------------------------------------ 
  End decomposition of the XC Energy 
  ------------------------------------ 

------------------------------------------------------------

------------------------------------------------------------------------------
  Final output of selected total energy values:

  The following output summarizes some interesting total energy values
  at the end of a run (AFTER all relaxation, molecular dynamics, etc.).

  | Total energy of the DFT / Hartree-Fock s.c.f. calculation      :        -222473.348360665 eV
  | Final zero-broadening corrected energy (caution - metals only) :        -222473.348363155 eV
  | For reference only, the value of 1 Hartree used in FHI-aims is :             27.211384500 eV
  | For reference only, the overall average (free atom contribution
  | + realspace contribution) of the electrostatic potential after
  | s.c.f. convergence is                                          :            -33.676384986 eV

  Before relying on these values, please be sure to understand exactly which
  total energy value is referred to by a given number. Different objects may
  all carry the same name 'total energy'. Definitions:

  Total energy of the DFT / Hartree-Fock s.c.f. calculation:
  | Note that this energy does not include ANY quantities calculated after the
  | s.c.f. cycle, in particular not ANY RPA, MP2, etc. many-body perturbation terms.

  Final zero-broadening corrected energy:
  | For metallic systems only, a broadening of the occupation numbers at the Fermi
  | level can be extrapolated back to zero broadening by an electron-gas inspired
  | formula. For all systems that are not real metals, this value can be
  | meaningless and should be avoided.

------------------------------------------------------------------------------
  Methods described in the following list of references were used in this FHI-aims run.
  If you publish the results, please make sure to cite these reference if they apply.
  FHI-aims is an academic code, and for our developers (often, Ph.D. students
  and postdocs), scientific credit in the community is essential.
  Thank you for helping us!

  For any use of FHI-aims, please cite:

    Volker Blum, Ralf Gehrke, Felix Hanke, Paula Havu, Ville Havu,
    Xinguo Ren, Karsten Reuter, and Matthias Scheffler
    'Ab initio molecular simulations with numeric atom-centered orbitals'
    Computer Physics Communications 180, 2175-2196 (2009)
    http://dx.doi.org/10.1016/j.cpc.2009.06.022


  The provided symmetry information was generated with SPGlib:

    Atsushi Togo, Yusuke Seto, Dimitar Pashov
    SPGlib 1.7.3 obtained from http://spglib.sourceforge.net
    Copyright (C) 2008 Atsushi Togo


  The ELSI infrastructure was used in your run to solve the Kohn-Sham electronic structure.
  Please check out http://elsi-interchange.org to learn more.
  If scalability is important for your project, please acknowledge ELSI by citing:

    V. W-z. Yu, F. Corsetti, A. Garcia, W. P. Huhn, M. Jacquelin, W. Jia,
    B. Lange, L. Lin, J. Lu, W. Mi, A. Seifitokaldani, A. Vazquez-Mayagoitia,
    C. Yang, H. Yang, and V. Blum
    'ELSI: A unified software interface for Kohn-Sham electronic structure solvers'
    Computer Physics Communications 222, 267-285 (2018).
    http://dx.doi.org/10.1016/j.cpc.2017.09.007


  For the real-space grid partitioning and parallelization used in this calculation, please cite:

    Ville Havu, Volker Blum, Paula Havu, and Matthias Scheffler,
    'Efficient O(N) integration for all-electron electronic structure calculation'
    'using numerically tabulated basis functions'
    Journal of Computational Physics 228, 8367-8379 (2009).
    http://dx.doi.org/10.1016/j.jcp.2009.08.008

  Of course, there are many other important community references, e.g., those cited in the
  above references. Our list is limited to references that describe implementations in the
  FHI-aims code. The reason is purely practical (length of this list) - please credit others as well.

------------------------------------------------------------
          Leaving FHI-aims.
          Date     :  20210714, Time     :  104739.711

          Computational steps:
          | Number of self-consistency cycles          :           19
          | Number of SCF (re)initializations          :            1

          Detailed time accounting                     :  max(cpu_time)    wall_clock(cpu1)
          | Total time                                 :       62.227 s          62.283 s
          | Preparation time                           :        0.441 s           0.442 s
          | Boundary condition initalization           :        0.084 s           0.084 s
          | Grid partitioning                          :        0.030 s           0.030 s
          | Preloading free-atom quantities on grid    :        0.184 s           0.185 s
          | Free-atom superposition energy             :        0.014 s           0.014 s
          | Total time for integrations                :       16.064 s          16.072 s
          | Total time for solution of K.-S. equations :        0.610 s           0.608 s
          | Total time for density & force components  :       38.218 s          38.250 s
          | Total time for mixing & preconditioning    :        1.043 s           1.043 s
          | Total time for Hartree multipole update    :        0.031 s           0.030 s
          | Total time for Hartree multipole sum       :        3.500 s           3.506 s
          | Total time for total energy evaluation     :        0.010 s           0.005 s
          | Total time for scaled ZORA corrections     :        0.000 s           0.000 s
          | Total time for vdW correction              :        1.902 s           1.904 s

          Partial memory accounting:
          | Residual value for overall tracked memory usage across tasks:     0.000000 MB (should be 0.000000 MB)
          | Peak values for overall tracked memory usage:
          |   Minimum:       52.499 MB (on task  3 after allocating d_wave)
          |   Maximum:       55.361 MB (on task 13 after allocating d_wave)
          |   Average:       53.896 MB
          | Largest tracked array allocation:
          |   Minimum:       20.047 MB (hamiltonian_shell on task  3)
          |   Maximum:       21.868 MB (hamiltonian_shell on task 13)
          |   Average:       20.952 MB
          Note:  These values currently only include a subset of arrays which are explicitly tracked.
          The "true" memory usage will be greater.

          Have a nice day.
------------------------------------------------------------
