------------------------------------------------------------
          Invoking FHI-aims ...

          When using FHI-aims, please cite the following reference:

            Volker Blum, Ralf Gehrke, Felix Hanke, Paula Havu,
            Ville Havu, Xinguo Ren, Karsten Reuter, and Matthias Scheffler,
            'Ab Initio Molecular Simulations with Numeric Atom-Centered Orbitals',
            Computer Physics Communications 180, 2175-2196 (2009)

          In addition, many other developments in FHI-aims are likely important for
          your particular application. A partial list of references is given at the end of
          this file. Thank you for giving credit to the authors of these developments.

          For any questions about FHI-aims, please visit our slack channel at

            https://fhi-aims.slack.com

          and our main development and support site at

            https://aims-git.rz-berlin.mpg.de .

          The latter site, in particular, has a wiki to collect information, as well
          as an issue tracker to log discussions, suggest improvements, and report issues
          or bugs. https://aims-git.rz-berlin.mpg.de is also the main development site
          of the project and all new and updated code versions can be obtained there.
          Please send an email to aims-coordinators@fhi-berlin.mpg.de and we will add
          you to these sites. They are for you and everyone is welcome there.

------------------------------------------------------------



  Date     :  20210404, Time     :  224135.659
  Time zero on CPU 1             :   0.174909000000000E+00  s.
  Internal wall clock time zero  :           386808095.659  s.

  FHI-aims created a unique identifier for this run for later identification
  aims_uuid : 22546310-6DAB-4BBA-A621-BDBCB7170E7F

  Build configuration of the current instance of FHI-aims
  -------------------------------------------------------
  FHI-aims version      : 210313
  Commit number         : f94121f93
  CMake host system     : Linux-4.12.14-122.57-default
  CMake version         : 3.5.2
  Fortran compiler      : /mpcdf/soft/SLE_12/packages/x86_64/intel_parallel_studio/2020.1/compilers_and_libraries_2020.1.217/linux/mpi/intel64/bin/mpiifort (Intel) version 19.1.0.20200306
  Fortran compiler flags: -O3 -ip -fp-model precise
  C compiler            : /mpcdf/soft/SLE_12/packages/x86_64/intel/19.1.1/bin/icc (Intel) version 19.1.0.20200306
  C compiler flags      : -O3 -ip -fp-model precise -std=gnu99
  C++ compiler          : /mpcdf/soft/SLE_12/packages/x86_64/intel/19.1.1/bin/icpc (Intel) version 19.1.0.20200306
  C++ compiler flags    : -O3 -ip -fp-model precise -std=gnu99
  Using MPI
  Using ScaLAPACK
  Using LibXC
  Using i-PI
  Using RLSY
  Linking against: /mpcdf/soft/SLE_12/packages/x86_64/intel_parallel_studio/2020.1/mkl/lib/intel64/libmkl_intel_lp64.so
                   /mpcdf/soft/SLE_12/packages/x86_64/intel_parallel_studio/2020.1/mkl/lib/intel64/libmkl_sequential.so
                   /mpcdf/soft/SLE_12/packages/x86_64/intel_parallel_studio/2020.1/mkl/lib/intel64/libmkl_core.so
                   /mpcdf/soft/SLE_12/packages/x86_64/intel_parallel_studio/2020.1/mkl/lib/intel64/libmkl_blacs_intelmpi_lp64.so
                   /mpcdf/soft/SLE_12/packages/x86_64/intel_parallel_studio/2020.1/mkl/lib/intel64/libmkl_scalapack_lp64.so

  Using      160 parallel tasks.
  Task        0 on host co1523 reporting.
  Task        1 on host co1523 reporting.
  Task        2 on host co1523 reporting.
  Task        3 on host co1523 reporting.
  Task        4 on host co1523 reporting.
  Task        5 on host co1523 reporting.
  Task        6 on host co1523 reporting.
  Task        7 on host co1523 reporting.
  Task        8 on host co1523 reporting.
  Task        9 on host co1523 reporting.
  Task       10 on host co1523 reporting.
  Task       11 on host co1523 reporting.
  Task       12 on host co1523 reporting.
  Task       13 on host co1523 reporting.
  Task       14 on host co1523 reporting.
  Task       15 on host co1523 reporting.
  Task       16 on host co1523 reporting.
  Task       17 on host co1523 reporting.
  Task       18 on host co1523 reporting.
  Task       19 on host co1523 reporting.
  Task       20 on host co1523 reporting.
  Task       21 on host co1523 reporting.
  Task       22 on host co1523 reporting.
  Task       23 on host co1523 reporting.
  Task       24 on host co1523 reporting.
  Task       25 on host co1523 reporting.
  Task       26 on host co1523 reporting.
  Task       27 on host co1523 reporting.
  Task       28 on host co1523 reporting.
  Task       29 on host co1523 reporting.
  Task       30 on host co1523 reporting.
  Task       31 on host co1523 reporting.
  Task       32 on host co1523 reporting.
  Task       33 on host co1523 reporting.
  Task       34 on host co1523 reporting.
  Task       35 on host co1523 reporting.
  Task       36 on host co1523 reporting.
  Task       37 on host co1523 reporting.
  Task       38 on host co1523 reporting.
  Task       39 on host co1523 reporting.
  Task       40 on host co1529 reporting.
  Task       41 on host co1529 reporting.
  Task       42 on host co1529 reporting.
  Task       43 on host co1529 reporting.
  Task       44 on host co1529 reporting.
  Task       45 on host co1529 reporting.
  Task       46 on host co1529 reporting.
  Task       47 on host co1529 reporting.
  Task       48 on host co1529 reporting.
  Task       49 on host co1529 reporting.
  Task       50 on host co1529 reporting.
  Task       51 on host co1529 reporting.
  Task       52 on host co1529 reporting.
  Task       53 on host co1529 reporting.
  Task       54 on host co1529 reporting.
  Task       55 on host co1529 reporting.
  Task       56 on host co1529 reporting.
  Task       57 on host co1529 reporting.
  Task       58 on host co1529 reporting.
  Task       59 on host co1529 reporting.
  Task       60 on host co1529 reporting.
  Task       61 on host co1529 reporting.
  Task       62 on host co1529 reporting.
  Task       63 on host co1529 reporting.
  Task       64 on host co1529 reporting.
  Task       65 on host co1529 reporting.
  Task       66 on host co1529 reporting.
  Task       67 on host co1529 reporting.
  Task       68 on host co1529 reporting.
  Task       69 on host co1529 reporting.
  Task       70 on host co1529 reporting.
  Task       71 on host co1529 reporting.
  Task       72 on host co1529 reporting.
  Task       73 on host co1529 reporting.
  Task       74 on host co1529 reporting.
  Task       75 on host co1529 reporting.
  Task       76 on host co1529 reporting.
  Task       77 on host co1529 reporting.
  Task       78 on host co1529 reporting.
  Task       79 on host co1529 reporting.
  Task       80 on host co1530 reporting.
  Task       81 on host co1530 reporting.
  Task       82 on host co1530 reporting.
  Task       83 on host co1530 reporting.
  Task       84 on host co1530 reporting.
  Task       85 on host co1530 reporting.
  Task       86 on host co1530 reporting.
  Task       87 on host co1530 reporting.
  Task       88 on host co1530 reporting.
  Task       89 on host co1530 reporting.
  Task       90 on host co1530 reporting.
  Task       91 on host co1530 reporting.
  Task       92 on host co1530 reporting.
  Task       93 on host co1530 reporting.
  Task       94 on host co1530 reporting.
  Task       95 on host co1530 reporting.
  Task       96 on host co1530 reporting.
  Task       97 on host co1530 reporting.
  Task       98 on host co1530 reporting.
  Task       99 on host co1530 reporting.
  Task      100 on host co1530 reporting.
  Task      101 on host co1530 reporting.
  Task      102 on host co1530 reporting.
  Task      103 on host co1530 reporting.
  Task      104 on host co1530 reporting.
  Task      105 on host co1530 reporting.
  Task      106 on host co1530 reporting.
  Task      107 on host co1530 reporting.
  Task      108 on host co1530 reporting.
  Task      109 on host co1530 reporting.
  Task      110 on host co1530 reporting.
  Task      111 on host co1530 reporting.
  Task      112 on host co1530 reporting.
  Task      113 on host co1530 reporting.
  Task      114 on host co1530 reporting.
  Task      115 on host co1530 reporting.
  Task      116 on host co1530 reporting.
  Task      117 on host co1530 reporting.
  Task      118 on host co1530 reporting.
  Task      119 on host co1530 reporting.
  Task      120 on host co1536 reporting.
  Task      121 on host co1536 reporting.
  Task      122 on host co1536 reporting.
  Task      123 on host co1536 reporting.
  Task      124 on host co1536 reporting.
  Task      125 on host co1536 reporting.
  Task      126 on host co1536 reporting.
  Task      127 on host co1536 reporting.
  Task      128 on host co1536 reporting.
  Task      129 on host co1536 reporting.
  Task      130 on host co1536 reporting.
  Task      131 on host co1536 reporting.
  Task      132 on host co1536 reporting.
  Task      133 on host co1536 reporting.
  Task      134 on host co1536 reporting.
  Task      135 on host co1536 reporting.
  Task      136 on host co1536 reporting.
  Task      137 on host co1536 reporting.
  Task      138 on host co1536 reporting.
  Task      139 on host co1536 reporting.
  Task      140 on host co1536 reporting.
  Task      141 on host co1536 reporting.
  Task      142 on host co1536 reporting.
  Task      143 on host co1536 reporting.
  Task      144 on host co1536 reporting.
  Task      145 on host co1536 reporting.
  Task      146 on host co1536 reporting.
  Task      147 on host co1536 reporting.
  Task      148 on host co1536 reporting.
  Task      149 on host co1536 reporting.
  Task      150 on host co1536 reporting.
  Task      151 on host co1536 reporting.
  Task      152 on host co1536 reporting.
  Task      153 on host co1536 reporting.
  Task      154 on host co1536 reporting.
  Task      155 on host co1536 reporting.
  Task      156 on host co1536 reporting.
  Task      157 on host co1536 reporting.
  Task      158 on host co1536 reporting.
  Task      159 on host co1536 reporting.

  Performing system and environment tests:
  | Environment variable OMP_NUM_THREADS correctly set to 1.
  | Checking for ScaLAPACK...
  | Testing pdtran()...
  | All pdtran() tests passed.

  Obtaining array dimensions for all initial allocations:
  
  -----------------------------------------------------------------------
  Parsing control.in (first pass over file, find array dimensions only).
  The contents of control.in will be repeated verbatim below
  unless switched off by setting 'verbatim_writeout .false.' .
  in the first line of control.in .
  -----------------------------------------------------------------------
  
  ##### Physical settings  ################
  xc                 pbe
  spin               none
  charge      0.0
  relativistic       atomic_zora scalar
  #elsi_restart read
  # SCF settings
  #relax_unit_cell full
  
  
  
  #vdw_correction_hirshfeld
  harmonic_length_scale 0.09
  energy_tolerance  1E-3
  occupation_type gaussian       0.01
  # k-grid settings  (to be adjusted)
  k_grid  2 2 1
  #empty_states 8
  use_dipole_correction
  #include_spin_orbit non_self_consistent
  
  output cube stm -1
  mixer   pulay
  n_max_pulay        12 # high for metal
  charge_mix_param   0.1 #low for metal
  ################################################################################
  #
  #  FHI-aims code project
  # Volker Blum, Fritz Haber Institute Berlin, 2009
  #
  #  Suggested "tight" defaults for S atom (to be pasted into control.in file)
  #
  #  Revised Jan 04, 2011, following tests (SiC) done by Lydia Nemec:
  #     d and g functions of tier 2 now enabled by default.
  #
  ################################################################################
    species        S
  #     global species definitions
      nucleus             16
      mass                32.065
  #
      l_hartree           6
  #
      cut_pot             4.0          2.0  1.0
      basis_dep_cutoff    1e-4
  #
      radial_base         44 7.0
      radial_multiplier   2
      angular_grids       specified
        division   0.4665  110
        division   0.5810  194
        division   0.7139  302
        division   0.8274  434
  #      division   0.9105  590
  #      division   1.0975  770
  #      division   1.2028  974
  #      outer_grid  974
        outer_grid  434
  ################################################################################
  #
  #  Definition of "minimal" basis
  #
  ################################################################################
  #     valence basis states
      valence      3  s   2.
      valence      3  p   4.
  #     ion occupancy
      ion_occ      3  s   1.
      ion_occ      3  p   3.
  ################################################################################
  #
  #  Suggested additional basis functions. For production calculations,
  #  uncomment them one after another (the most important basis functions are
  #  listed first).
  #
  #  Constructed for dimers: 1.6 A, 1.9 A, 2.5 A, 3.25 A, 4.0 A
  #
  ################################################################################
  #  "First tier" - improvements: -652.81 meV to -45.53 meV
       ionic 3 d auto
       hydro 2 p 1.8
       hydro 4 f 7
       ionic 3 s auto
  #  "Second tier" - improvements: -30.20 meV to -1.74 meV
       hydro 4 d 6.2
       hydro 5 g 10.8
  #     hydro 4 p 4.9
  #     hydro 5 f 10
  #     hydro 1 s 0.8
  #  "Third tier" - improvements: -1.04 meV to -0.20 meV
  #     hydro 3 d 3.9
  #     hydro 3 d 2.7
  #     hydro 5 g 12
  #     hydro 4 p 10.4
  #     hydro 5 f 12.4
  #     hydro 2 s 1.9
  #  "Fourth tier" - improvements: -0.35 meV to -0.06 meV
  #     hydro 4 d 10.4
  #     hydro 4 p 7.2
  #     hydro 4 d 10
  #     hydro 5 g 19.2
  #     hydro 4 s 12
  
  ################################################################################
  #
  # For methods that use the localized form of the "resolution of identity" for
  # the two-electron Coulomb operator (RI_method LVL), particularly Hartree-Fock and
  # hybrid density functional calculations, the highest accuracy can be obtained by
  # uncommenting the line beginning with "for_aux"  below, thus adding an extra g radial
  # function to the construction of the product basis set for the expansion.
  # See Ref. New J. Phys. 17, 093020 (2015) for more information, particularly Figs. 1 and 6.
  #
  ################################################################################
  #
  # for_aux hydro 5 g 6.0
  ################################################################################
  #
  #  FHI-aims code project
  # Volker Blum, Fritz Haber Institute Berlin, 2009
  #
  #  Suggested "tight" defaults for Mo atom (to be pasted into control.in file)
  #
  ################################################################################
    species        Mo
  #     global species definitions
      nucleus             42
      mass                95.94
  #
      l_hartree           6
  #
      cut_pot             4.0  2.0  1.0
      basis_dep_cutoff    1e-4
  #
      radial_base         59 7.0
      radial_multiplier   2
      angular_grids specified
        division   0.3117   50
        division   0.6750  110
        division   1.0351  194
        division   1.2073  302
        division   1.6402  434
  #      division   1.9185  590
  #      division   2.0237  770
  #      division   2.0980  974
  #      division   2.7972 1202
  #      outer_grid  974
        outer_grid  434
  ################################################################################
  #
  #  Definition of "minimal" basis
  #
  ################################################################################
  #     valence basis states
      valence      5  s   1.
      valence      4  p   6.
      valence      4  d   5.
  #     ion occupancy
      ion_occ     5  s   0.
      ion_occ     4  p   6.
      ion_occ     4  d   4.
  ################################################################################
  #
  #  Suggested additional basis functions. For production calculations,
  #  uncomment them one after another (the most important basis functions are
  #  listed first).
  #
  #  Constructed for dimers: 1.675 A, 1.9 A, 2.375 A, 3.00 A, 4.00 A
  #
  ################################################################################
  #  "First tier"  - max. impr. -711.23  meV, min. impr. -21.07 meV
       hydro 4 f 8.4
       hydro 3 d 2.8
       ionic 5 p auto
       hydro 5 g 12
       ionic 5 s auto
  #  "Second tier" - max. impr. -39.38  meV, min. impr. -2.68 meV
  #     hydro 4 f 12.4
  #     hydro 3 d 3.3
  #     hydro 6 h 17.2
  #     hydro 4 f 7.6
  #     hydro 3 p 3.0
  #     hydro 1 s 0.65
  #  "Third tier"  - max. impr. -5.50 meV, min. impr. -0.47 meV
  #     hydro 4 f 29.2
  #     hydro 5 g 11.2
  #     hydro 3 d 6.8
  #     hydro 6 h 14.8
  #     hydro 2 p 2.3
  #     hydro 4 s 3.8
  #  "Fourth tier"  - max. impr. -0.58 meV, min. impr. -0.19 meV
  #     hydro 5 f 6.8
  #     hydro 5 d 14.8
  #     hydro 6 s 7.8
  #     hydro 5 g 20.8
  #     hydro 5 d 10.4
  #     hydro 5 p 9.8
  #  Further functions - -0.17 meV and below
  #     hydro 5 d 3.2
  
  -----------------------------------------------------------------------
  Completed first pass over input file control.in .
  -----------------------------------------------------------------------
  
  
  -----------------------------------------------------------------------
  Parsing geometry.in (first pass over file, find array dimensions only).
  The contents of geometry.in will be repeated verbatim below
  unless switched off by setting 'verbatim_writeout .false.' .
  in the first line of geometry.in .
  -----------------------------------------------------------------------
  
  #
  # This is the geometry file that corresponds to the current relaxation step.
  # If you do not want this file to be written, set the "write_restart_geometry" flag to .false.
  #  aims_uuid : 272D74AB-3837-4919-A9C5-F99784648CF0
  #
    set_vacuum_level        53.072500
  lattice_vector     15.90000000      0.00000000      0.00000000
  lattice_vector     -7.95000000     13.76980390      0.00000000
  lattice_vector      0.00000000      0.00000000    100.00000000
  atom       1.58080373      0.90652082      3.07250000 Mo
  atom      -0.00074157      1.84102204      4.63336675 S
  atom      -0.00074157      1.84102204      1.51163325 S
  atom       0.01239464      3.67962724      3.07250000 Mo
  atom      -1.58639677      4.58746088      4.63336766 S
  atom      -1.58639677      4.58746088      1.51163234 S
  atom      -1.60485780      6.42430219      3.07250000 Mo
  atom      -3.17998241      7.34800574      4.63738973 S
  atom      -3.17998241      7.34800574      1.50761027 S
  atom      -3.17997310      9.18367964      3.07250000 Mo
  atom      -4.76266917     10.10236311      4.63769871 S
  atom      -4.76266917     10.10236311      1.50730129 S
  atom      -4.76693309     11.93242504      3.07250000 Mo
  atom      -6.35670418     12.85028137      4.63740178 S
  atom      -6.35670418     12.85028137      1.50759822 S
  atom       4.77008544      0.89773060      3.07250000 Mo
  atom       3.17422458      1.81194116      4.62729872 S
  atom       3.17422458      1.81194116      1.51770128 S
  atom       3.21750437      3.65934275      3.07250000 Mo
  atom       1.61587723      4.60533908      4.62509504 S
  atom       1.61587723      4.60533908      1.51990496 S
  atom       1.59750627      6.46536747      3.07250000 Mo
  atom      -0.02399253      7.35143596      4.62727524 S
  atom      -0.02399253      7.35143596      1.51772476 S
  atom      -0.01782410      9.19056329      3.07250000 Mo
  atom      -1.59723414     10.10240659      4.63768849 S
  atom      -1.59723414     10.10240659      1.50731151 S
  atom      -1.59296466     11.93245726      3.07250000 Mo
  atom      -3.17991748     12.84374706      4.63770710 S
  atom      -3.17991748     12.84374706      1.50729290 S
  atom       7.95923096      0.90651444      3.07250000 Mo
  atom       6.36595017      1.81199592      4.62727266 S
  atom       6.36595017      1.81199592      1.51772734 S
  atom       6.32263822      3.65939444      3.07250000 Mo
  atom       4.77013766      4.51704509      4.64328185 S
  atom       4.77013766      4.51704509      1.50171815 S
  atom       3.11651588      7.38098313      4.64328152 S
  atom       3.11651588      7.38098313      1.50171848 S
  atom       3.14991578      9.15432722      3.07250000 Mo
  atom       1.57179250     10.11548071      4.62729633 S
  atom       1.57179250     10.11548071      1.51770367 S
  atom       1.58429345     11.94807927      3.07250000 Mo
  atom      -0.00321962     12.85030191      4.63739556 S
  atom      -0.00321962     12.85030191      1.50760444 S
  atom      11.13252536      0.91991730      3.07250000 Mo
  atom       9.54069423      1.84100232      4.63336476 S
  atom       9.54069423      1.84100232      1.51163524 S
  atom       9.52747941      3.67956320      3.07250000 Mo
  atom       7.92412313      4.60523814      4.62511093 S
  atom       7.92412313      4.60523814      1.51988907 S
  atom       7.94242448      6.46511620      3.07250000 Mo
  atom       6.42346162      7.38081066      4.64330105 S
  atom       6.42346162      7.38081066      1.50169895 S
  atom       6.38994733      9.15429302      3.07250000 Mo
  atom       4.76991304     10.06838021      4.62511809 S
  atom       4.76991304     10.06838021      1.51988191 S
  atom       4.76987974     11.91983337      3.07250000 Mo
  atom       3.18427931     12.85052376      4.63336662 S
  atom       3.18427931     12.85052376      1.51163338 S
  atom      14.30730049      0.91993451      3.07250000 Mo
  atom      12.71993113      1.83641030      4.63492560 S
  atom      12.71993113      1.83641030      1.51007440 S
  atom      12.71992839      3.66938674      3.07250000 Mo
  atom      11.12632316      4.58740325      4.63336542 S
  atom      11.12632316      4.58740325      1.51163458 S
  atom      11.14484548      6.42422229      3.07250000 Mo
  atom       9.56400173      7.35128867      4.62726461 S
  atom       9.56400173      7.35128867      1.51773539 S
  atom       9.55785063      9.19048232      3.07250000 Mo
  atom       7.96821591     10.11543730      4.62731351 S
  atom       7.96821591     10.11543730      1.51768649 S
  atom       7.95564711     11.94807423      3.07250000 Mo
  atom       6.35559232     12.85051820      4.63336448 S
  atom       6.35559232     12.85051820      1.51163552 S
  
  -----------------------------------------------------------------------
  Completed first pass over input file geometry.in .
  -----------------------------------------------------------------------
  

  Basic array size parameters:
  | Number of species                 :        2
  | Number of atoms                   :       74
  | Number of lattice vectors         :        3
  | Max. basis fn. angular momentum   :        4
  | Max. atomic/ionic basis occupied n:        5
  | Max. number of basis fn. types    :        3
  | Max. radial fns per species/type  :       10
  | Max. logarithmic grid size        :     1436
  | Max. radial integration grid size :      119
  | Max. angular integration grid size:      434
  | Max. angular grid division number :        8
  | Radial grid for Hartree potential :     1436
  | Number of spin channels           :        1
  | Cube type output requested        :        1

------------------------------------------------------------
          Reading file control.in.
------------------------------------------------------------
  XC: Using PBE gradient-corrected functionals.
  Spin treatment: No spin polarisation.
  Charge =   0.000000E+00: Neutral system requested explicitly.
  Scalar relativistic treatment of kinetic energy: on-site free-atom approximation to ZORA.
  Assuming qualitatively harmonic for steps shorter than   0.900000E-01 A.
  Max energy increase before discarding BFGS move:   0.100000E-02 eV
  Occupation type: Gaussian broadening, width =   0.100000E-01 eV.
  Found k-point grid:         2         2         1
  Using dipole correction.
  | STM width in eV:      -1.0000
  | Cube output options:
 * Cube origin was not provided following cube request. Will be using default value.
 * Cube edges were not provided following cube request. Defaults will be used.
 Standard cube format requested.

  Using pulay charge density mixing.
  Pulay mixing - number of memorized iterations:   12
  Charge density mixing - mixing parameter:     0.1000
 
  Reading configuration options for species S                   .
  | Found nuclear charge :  16.0000
  | Found atomic mass :    32.0650000000000      amu
  | Found l_max for Hartree potential  :   6
  | Found cutoff potl. onset [A], width [A], scale factor :    4.00000    2.00000    1.00000
  | Threshold for basis-dependent cutoff potential is   0.100000E-03
  | Found data for basic radial integration grid :    44 points, outermost radius =    7.000 A
  | Found multiplier for basic radial grid :   2
  | Found angular grid specification: user-specified.
  | Specified grid contains     5 separate shells.
  | Check grid settings after all constraints further below.
  | Found free-atom valence shell :  3 s   2.000
  | Found free-atom valence shell :  3 p   4.000
  | Found free-ion valence shell :  3 s   1.000
  | Found free-ion valence shell :  3 p   3.000
  | Found ionic basis function :  3 d , default cutoff radius.
  | Found hydrogenic basis function :  2 p   1.800
  | Found hydrogenic basis function :  4 f   7.000
  | Found ionic basis function :  3 s , default cutoff radius.
  | Found hydrogenic basis function :  4 d   6.200
  | Found hydrogenic basis function :  5 g  10.800
  Species S                   : Missing cutoff potential type.
  Defaulting to exp(1/x)/(1-x)^2 type cutoff potential.
  Species S : No 'logarithmic' tag. Using default grid for free atom:
  | Default logarithmic grid data [bohr] : 0.1000E-03 0.1000E+03 0.1012E+01
  | Will include ionic basis functions of  2.0-fold positive S                    ion.
  Species S : On-site basis accuracy parameter (for Gram-Schmidt orthonormalisation) not specified.
  Using default value basis_acc =  0.1000000E-03.
  Species S                   : Using default innermost maximum threshold i_radial=  2 for radial functions.
  Species S                   : Default cutoff onset for free atom density etc. : 0.40000000E+01 AA.
  Species S                   : Basic radial grid will be enhanced according to radial_multiplier =   2, to contain    89 grid points.
 
  Reading configuration options for species Mo                  .
  | Found nuclear charge :  42.0000
  | Found atomic mass :    95.9400000000000      amu
  | Found l_max for Hartree potential  :   6
  | Found cutoff potl. onset [A], width [A], scale factor :    4.00000    2.00000    1.00000
  | Threshold for basis-dependent cutoff potential is   0.100000E-03
  | Found data for basic radial integration grid :    59 points, outermost radius =    7.000 A
  | Found multiplier for basic radial grid :   2
  | Found angular grid specification: user-specified.
  | Specified grid contains     6 separate shells.
  | Check grid settings after all constraints further below.
  | Found free-atom valence shell :  5 s   1.000
  | Found free-atom valence shell :  4 p   6.000
  | Found free-atom valence shell :  4 d   5.000
  | Found free-ion valence shell :  5 s   0.000
  | Found free-ion valence shell :  4 p   6.000
  | Found free-ion valence shell :  4 d   4.000
  | Found hydrogenic basis function :  4 f   8.400
  | Found hydrogenic basis function :  3 d   2.800
  | Found ionic basis function :  5 p , default cutoff radius.
  | Found hydrogenic basis function :  5 g  12.000
  | Found ionic basis function :  5 s , default cutoff radius.
  Species Mo                  : Missing cutoff potential type.
  Defaulting to exp(1/x)/(1-x)^2 type cutoff potential.
  Species Mo: No 'logarithmic' tag. Using default grid for free atom:
  | Default logarithmic grid data [bohr] : 0.1000E-03 0.1000E+03 0.1012E+01
  | Will include ionic basis functions of  2.0-fold positive Mo                   ion.
  Species Mo: On-site basis accuracy parameter (for Gram-Schmidt orthonormalisation) not specified.
  Using default value basis_acc =  0.1000000E-03.
  Species Mo                  : Using default innermost maximum threshold i_radial=  2 for radial functions.
  Species Mo                  : Default cutoff onset for free atom density etc. : 0.40000000E+01 AA.
  Species Mo                  : Basic radial grid will be enhanced according to radial_multiplier =   2, to contain   119 grid points.
 
  Finished reading input file 'control.in'.
 
------------------------------------------------------------


------------------------------------------------------------
          Reading geometry description geometry.in.
------------------------------------------------------------
  Vacuum level in z-axis :   0.530725E+02
  | The smallest distance between any two atoms is         2.36919750 AA.
  | The first atom of this pair is atom number                     37 .
  | The second atom of this pair is atom number                    22 .
  | Wigner-Seitz cell of the first atom image           0     1     0 .
  | (The Wigner-Seitz cell of the second atom is 0 0 0  by definition.)

  Symmetry information by spglib:
  | Precision set to  0.1E-04
  | Number of Operations  : 2
  | Space group           : 6
  | International         : Pm       4
  | Schoenflies           : Cs^1
  Input structure read successfully.
  The structure contains       74 atoms,  and a total of       1808.000 electrons.

  Input geometry:
  | Unit cell:
  |       15.90000000        0.00000000        0.00000000
  |       -7.95000000       13.76980390        0.00000000
  |        0.00000000        0.00000000      100.00000000
  | Atomic structure:
  |       Atom                x [A]            y [A]            z [A]
  |    1: Species Mo            1.58080373        0.90652082        3.07250000
  |    2: Species S            -0.00074157        1.84102204        4.63336675
  |    3: Species S            -0.00074157        1.84102204        1.51163325
  |    4: Species Mo            0.01239464        3.67962724        3.07250000
  |    5: Species S            -1.58639677        4.58746088        4.63336766
  |    6: Species S            -1.58639677        4.58746088        1.51163234
  |    7: Species Mo           -1.60485780        6.42430219        3.07250000
  |    8: Species S            -3.17998241        7.34800574        4.63738973
  |    9: Species S            -3.17998241        7.34800574        1.50761027
  |   10: Species Mo           -3.17997310        9.18367964        3.07250000
  |   11: Species S            -4.76266917       10.10236311        4.63769871
  |   12: Species S            -4.76266917       10.10236311        1.50730129
  |   13: Species Mo           -4.76693309       11.93242504        3.07250000
  |   14: Species S            -6.35670418       12.85028137        4.63740178
  |   15: Species S            -6.35670418       12.85028137        1.50759822
  |   16: Species Mo            4.77008544        0.89773060        3.07250000
  |   17: Species S             3.17422458        1.81194116        4.62729872
  |   18: Species S             3.17422458        1.81194116        1.51770128
  |   19: Species Mo            3.21750437        3.65934275        3.07250000
  |   20: Species S             1.61587723        4.60533908        4.62509504
  |   21: Species S             1.61587723        4.60533908        1.51990496
  |   22: Species Mo            1.59750627        6.46536747        3.07250000
  |   23: Species S            -0.02399253        7.35143596        4.62727524
  |   24: Species S            -0.02399253        7.35143596        1.51772476
  |   25: Species Mo           -0.01782410        9.19056329        3.07250000
  |   26: Species S            -1.59723414       10.10240659        4.63768849
  |   27: Species S            -1.59723414       10.10240659        1.50731151
  |   28: Species Mo           -1.59296466       11.93245726        3.07250000
  |   29: Species S            -3.17991748       12.84374706        4.63770710
  |   30: Species S            -3.17991748       12.84374706        1.50729290
  |   31: Species Mo            7.95923096        0.90651444        3.07250000
  |   32: Species S             6.36595017        1.81199592        4.62727266
  |   33: Species S             6.36595017        1.81199592        1.51772734
  |   34: Species Mo            6.32263822        3.65939444        3.07250000
  |   35: Species S             4.77013766        4.51704509        4.64328185
  |   36: Species S             4.77013766        4.51704509        1.50171815
  |   37: Species S             3.11651588        7.38098313        4.64328152
  |   38: Species S             3.11651588        7.38098313        1.50171848
  |   39: Species Mo            3.14991578        9.15432722        3.07250000
  |   40: Species S             1.57179250       10.11548071        4.62729633
  |   41: Species S             1.57179250       10.11548071        1.51770367
  |   42: Species Mo            1.58429345       11.94807927        3.07250000
  |   43: Species S            -0.00321962       12.85030191        4.63739556
  |   44: Species S            -0.00321962       12.85030191        1.50760444
  |   45: Species Mo           11.13252536        0.91991730        3.07250000
  |   46: Species S             9.54069423        1.84100232        4.63336476
  |   47: Species S             9.54069423        1.84100232        1.51163524
  |   48: Species Mo            9.52747941        3.67956320        3.07250000
  |   49: Species S             7.92412313        4.60523814        4.62511093
  |   50: Species S             7.92412313        4.60523814        1.51988907
  |   51: Species Mo            7.94242448        6.46511620        3.07250000
  |   52: Species S             6.42346162        7.38081066        4.64330105
  |   53: Species S             6.42346162        7.38081066        1.50169895
  |   54: Species Mo            6.38994733        9.15429302        3.07250000
  |   55: Species S             4.76991304       10.06838021        4.62511809
  |   56: Species S             4.76991304       10.06838021        1.51988191
  |   57: Species Mo            4.76987974       11.91983337        3.07250000
  |   58: Species S             3.18427931       12.85052376        4.63336662
  |   59: Species S             3.18427931       12.85052376        1.51163338
  |   60: Species Mo           14.30730049        0.91993451        3.07250000
  |   61: Species S            12.71993113        1.83641030        4.63492560
  |   62: Species S            12.71993113        1.83641030        1.51007440
  |   63: Species Mo           12.71992839        3.66938674        3.07250000
  |   64: Species S            11.12632316        4.58740325        4.63336542
  |   65: Species S            11.12632316        4.58740325        1.51163458
  |   66: Species Mo           11.14484548        6.42422229        3.07250000
  |   67: Species S             9.56400173        7.35128867        4.62726461
  |   68: Species S             9.56400173        7.35128867        1.51773539
  |   69: Species Mo            9.55785063        9.19048232        3.07250000
  |   70: Species S             7.96821591       10.11543730        4.62731351
  |   71: Species S             7.96821591       10.11543730        1.51768649
  |   72: Species Mo            7.95564711       11.94807423        3.07250000
  |   73: Species S             6.35559232       12.85051820        4.63336448
  |   74: Species S             6.35559232       12.85051820        1.51163552

  Lattice parameters for 3D lattice (in Angstroms) :    15.900000   15.900000  100.000000
  Angle(s) between unit vectors (in degrees)       :    90.000000   90.000000  120.000000


  Quantities derived from the lattice vectors:
  | Reciprocal lattice vector 1:  0.395169  0.228151  0.000000
  | Reciprocal lattice vector 2: -0.000000  0.456302  0.000000
  | Reciprocal lattice vector 3:  0.000000  0.000000  0.062832
  | Unit cell volume                               :   0.218940E+05  A^3

  Fractional coordinates:
                         L1                L2                L3
       atom_frac         0.13233860        0.06583397        0.03072500  Mo
       atom_frac         0.06680333        0.13369995        0.04633367  S
       atom_frac         0.06680333        0.13369995        0.01511633  S
       atom_frac         0.13439172        0.26722437        0.03072500  Mo
       atom_frac         0.06680346        0.33315368        0.04633368  S
       atom_frac         0.06680346        0.33315368        0.01511632  S
       atom_frac         0.13234055        0.46655001        0.03072500  Mo
       atom_frac         0.06681702        0.53363184        0.04637390  S
       atom_frac         0.06681702        0.53363184        0.01507610  S
       atom_frac         0.13347338        0.66694339        0.03072500  Mo
       atom_frac         0.06729138        0.73366064        0.04637699  S
       atom_frac         0.06729138        0.73366064        0.01507301  S
       atom_frac         0.13347520        0.86656463        0.03072500  Mo
       atom_frac         0.06681819        0.93322181        0.04637402  S
       atom_frac         0.06681819        0.93322181        0.01507598  S
       atom_frac         0.33260317        0.06519560        0.03072500  Mo
       atom_frac         0.26543077        0.13158801        0.04627299  S
       atom_frac         0.26543077        0.13158801        0.01517701  S
       atom_frac         0.33523440        0.26575126        0.03072500  Mo
       atom_frac         0.26885352        0.33445205        0.04625095  S
       atom_frac         0.26885352        0.33445205        0.01519905  S
       atom_frac         0.33523823        0.46953228        0.03072500  Mo
       atom_frac         0.26543151        0.53388095        0.04627275  S
       atom_frac         0.26543151        0.53388095        0.01517725  S
       atom_frac         0.33260064        0.66744330        0.03072500  Mo
       atom_frac         0.26637692        0.73366380        0.04637688  S
       atom_frac         0.26637692        0.73366380        0.01507312  S
       atom_frac         0.33309703        0.86656697        0.03072500  Mo
       atom_frac         0.26637883        0.93274727        0.04637707  S
       atom_frac         0.26637883        0.93274727        0.01507293  S
       atom_frac         0.53349732        0.06583350        0.03072500  Mo
       atom_frac         0.46617022        0.13159199        0.04627273  S
       atom_frac         0.46617022        0.13159199        0.01517727  S
       atom_frac         0.53052771        0.26575501        0.03072500  Mo
       atom_frac         0.46402861        0.32803990        0.04643282  S
       atom_frac         0.46402861        0.32803990        0.01501718  S
       atom_frac         0.46402066        0.53602674        0.04643282  S
       atom_frac         0.46402066        0.53602674        0.01501718  S
       atom_frac         0.53051378        0.66481173        0.03072500  Mo
       atom_frac         0.46616151        0.73461327        0.04627296  S
       atom_frac         0.46616151        0.73461327        0.01517704  S
       atom_frac         0.53349184        0.86770148        0.03072500  Mo
       atom_frac         0.46640916        0.93322331        0.04637396  S
       atom_frac         0.46640916        0.93322331        0.01507604  S
       atom_frac         0.73356226        0.06680686        0.03072500  Mo
       atom_frac         0.66689292        0.13369851        0.04633365  S
       atom_frac         0.66689292        0.13369851        0.01511635  S
       atom_frac         0.73282240        0.26721972        0.03072500  Mo
       atom_frac         0.66559488        0.33444471        0.04625111  S
       atom_frac         0.66559488        0.33444471        0.01519889  S
       atom_frac         0.73428057        0.46951404        0.03072500  Mo
       atom_frac         0.67199841        0.53601422        0.04643301  S
       atom_frac         0.67199841        0.53601422        0.01501699  S
       atom_frac         0.73428811        0.66480925        0.03072500  Mo
       atom_frac         0.66559089        0.73119271        0.04625118  S
       atom_frac         0.66559089        0.73119271        0.01519882  S
       atom_frac         0.73281753        0.86565019        0.03072500  Mo
       atom_frac         0.66688885        0.93323942        0.04633367  S
       atom_frac         0.66688885        0.93323942        0.01511633  S
       atom_frac         0.93323427        0.06680811        0.03072500  Mo
       atom_frac         0.86667818        0.13336503        0.04634926  S
       atom_frac         0.86667818        0.13336503        0.01510074  S
       atom_frac         0.93323584        0.26648068        0.03072500  Mo
       atom_frac         0.86634350        0.33314950        0.04633365  S
       atom_frac         0.86634350        0.33314950        0.01511635  S
       atom_frac         0.93420578        0.46654421        0.03072500  Mo
       atom_frac         0.86844467        0.53387025        0.04627265  S
       atom_frac         0.86844467        0.53387025        0.01517735  S
       atom_frac         0.93484139        0.66743741        0.03072500  Mo
       atom_frac         0.86845071        0.73461012        0.04627314  S
       atom_frac         0.86845071        0.73461012        0.01517686  S
       atom_frac         0.93420572        0.86770112        0.03072500  Mo
       atom_frac         0.86634229        0.93323901        0.04633364  S
       atom_frac         0.86634229        0.93323901        0.01511636  S

 
  Finished reading input file 'control.in'.
 

------------------------------------------------------------
          Reading geometry description geometry.in.
------------------------------------------------------------
 
  Consistency checks for stacksize environment parameter are next.
 
  | Maximum stacksize for task 0: unlimited
  | Maximum stacksize for task 1: unlimited
  | Maximum stacksize for task 2: unlimited
  | Maximum stacksize for task 3: unlimited
  | Maximum stacksize for task 4: unlimited
  | Maximum stacksize for task 5: unlimited
  | Maximum stacksize for task 6: unlimited
  | Maximum stacksize for task 7: unlimited
  | Maximum stacksize for task 8: unlimited
  | Maximum stacksize for task 9: unlimited
  | Maximum stacksize for task 10: unlimited
  | Maximum stacksize for task 11: unlimited
  | Maximum stacksize for task 12: unlimited
  | Maximum stacksize for task 13: unlimited
  | Maximum stacksize for task 14: unlimited
  | Maximum stacksize for task 15: unlimited
  | Maximum stacksize for task 16: unlimited
  | Maximum stacksize for task 17: unlimited
  | Maximum stacksize for task 18: unlimited
  | Maximum stacksize for task 19: unlimited
  | Maximum stacksize for task 20: unlimited
  | Maximum stacksize for task 21: unlimited
  | Maximum stacksize for task 22: unlimited
  | Maximum stacksize for task 23: unlimited
  | Maximum stacksize for task 24: unlimited
  | Maximum stacksize for task 25: unlimited
  | Maximum stacksize for task 26: unlimited
  | Maximum stacksize for task 27: unlimited
  | Maximum stacksize for task 28: unlimited
  | Maximum stacksize for task 29: unlimited
  | Maximum stacksize for task 30: unlimited
  | Maximum stacksize for task 31: unlimited
  | Maximum stacksize for task 32: unlimited
  | Maximum stacksize for task 33: unlimited
  | Maximum stacksize for task 34: unlimited
  | Maximum stacksize for task 35: unlimited
  | Maximum stacksize for task 36: unlimited
  | Maximum stacksize for task 37: unlimited
  | Maximum stacksize for task 38: unlimited
  | Maximum stacksize for task 39: unlimited
  | Maximum stacksize for task 40: unlimited
  | Maximum stacksize for task 41: unlimited
  | Maximum stacksize for task 42: unlimited
  | Maximum stacksize for task 43: unlimited
  | Maximum stacksize for task 44: unlimited
  | Maximum stacksize for task 45: unlimited
  | Maximum stacksize for task 46: unlimited
  | Maximum stacksize for task 47: unlimited
  | Maximum stacksize for task 48: unlimited
  | Maximum stacksize for task 49: unlimited
  | Maximum stacksize for task 50: unlimited
  | Maximum stacksize for task 51: unlimited
  | Maximum stacksize for task 52: unlimited
  | Maximum stacksize for task 53: unlimited
  | Maximum stacksize for task 54: unlimited
  | Maximum stacksize for task 55: unlimited
  | Maximum stacksize for task 56: unlimited
  | Maximum stacksize for task 57: unlimited
  | Maximum stacksize for task 58: unlimited
  | Maximum stacksize for task 59: unlimited
  | Maximum stacksize for task 60: unlimited
  | Maximum stacksize for task 61: unlimited
  | Maximum stacksize for task 62: unlimited
  | Maximum stacksize for task 63: unlimited
  | Maximum stacksize for task 64: unlimited
  | Maximum stacksize for task 65: unlimited
  | Maximum stacksize for task 66: unlimited
  | Maximum stacksize for task 67: unlimited
  | Maximum stacksize for task 68: unlimited
  | Maximum stacksize for task 69: unlimited
  | Maximum stacksize for task 70: unlimited
  | Maximum stacksize for task 71: unlimited
  | Maximum stacksize for task 72: unlimited
  | Maximum stacksize for task 73: unlimited
  | Maximum stacksize for task 74: unlimited
  | Maximum stacksize for task 75: unlimited
  | Maximum stacksize for task 76: unlimited
  | Maximum stacksize for task 77: unlimited
  | Maximum stacksize for task 78: unlimited
  | Maximum stacksize for task 79: unlimited
  | Maximum stacksize for task 80: unlimited
  | Maximum stacksize for task 81: unlimited
  | Maximum stacksize for task 82: unlimited
  | Maximum stacksize for task 83: unlimited
  | Maximum stacksize for task 84: unlimited
  | Maximum stacksize for task 85: unlimited
  | Maximum stacksize for task 86: unlimited
  | Maximum stacksize for task 87: unlimited
  | Maximum stacksize for task 88: unlimited
  | Maximum stacksize for task 89: unlimited
  | Maximum stacksize for task 90: unlimited
  | Maximum stacksize for task 91: unlimited
  | Maximum stacksize for task 92: unlimited
  | Maximum stacksize for task 93: unlimited
  | Maximum stacksize for task 94: unlimited
  | Maximum stacksize for task 95: unlimited
  | Maximum stacksize for task 96: unlimited
  | Maximum stacksize for task 97: unlimited
  | Maximum stacksize for task 98: unlimited
  | Maximum stacksize for task 99: unlimited
  | Maximum stacksize for task 100: unlimited
  | Maximum stacksize for task 101: unlimited
  | Maximum stacksize for task 102: unlimited
  | Maximum stacksize for task 103: unlimited
  | Maximum stacksize for task 104: unlimited
  | Maximum stacksize for task 105: unlimited
  | Maximum stacksize for task 106: unlimited
  | Maximum stacksize for task 107: unlimited
  | Maximum stacksize for task 108: unlimited
  | Maximum stacksize for task 109: unlimited
  | Maximum stacksize for task 110: unlimited
  | Maximum stacksize for task 111: unlimited
  | Maximum stacksize for task 112: unlimited
  | Maximum stacksize for task 113: unlimited
  | Maximum stacksize for task 114: unlimited
  | Maximum stacksize for task 115: unlimited
  | Maximum stacksize for task 116: unlimited
  | Maximum stacksize for task 117: unlimited
  | Maximum stacksize for task 118: unlimited
  | Maximum stacksize for task 119: unlimited
  | Maximum stacksize for task 120: unlimited
  | Maximum stacksize for task 121: unlimited
  | Maximum stacksize for task 122: unlimited
  | Maximum stacksize for task 123: unlimited
  | Maximum stacksize for task 124: unlimited
  | Maximum stacksize for task 125: unlimited
  | Maximum stacksize for task 126: unlimited
  | Maximum stacksize for task 127: unlimited
  | Maximum stacksize for task 128: unlimited
  | Maximum stacksize for task 129: unlimited
  | Maximum stacksize for task 130: unlimited
  | Maximum stacksize for task 131: unlimited
  | Maximum stacksize for task 132: unlimited
  | Maximum stacksize for task 133: unlimited
  | Maximum stacksize for task 134: unlimited
  | Maximum stacksize for task 135: unlimited
  | Maximum stacksize for task 136: unlimited
  | Maximum stacksize for task 137: unlimited
  | Maximum stacksize for task 138: unlimited
  | Maximum stacksize for task 139: unlimited
  | Maximum stacksize for task 140: unlimited
  | Maximum stacksize for task 141: unlimited
  | Maximum stacksize for task 142: unlimited
  | Maximum stacksize for task 143: unlimited
  | Maximum stacksize for task 144: unlimited
  | Maximum stacksize for task 145: unlimited
  | Maximum stacksize for task 146: unlimited
  | Maximum stacksize for task 147: unlimited
  | Maximum stacksize for task 148: unlimited
  | Maximum stacksize for task 149: unlimited
  | Maximum stacksize for task 150: unlimited
  | Maximum stacksize for task 151: unlimited
  | Maximum stacksize for task 152: unlimited
  | Maximum stacksize for task 153: unlimited
  | Maximum stacksize for task 154: unlimited
  | Maximum stacksize for task 155: unlimited
  | Maximum stacksize for task 156: unlimited
  | Maximum stacksize for task 157: unlimited
  | Maximum stacksize for task 158: unlimited
  | Maximum stacksize for task 159: unlimited
  | Current stacksize for task 0: unlimited
  | Current stacksize for task 1: unlimited
  | Current stacksize for task 2: unlimited
  | Current stacksize for task 3: unlimited
  | Current stacksize for task 4: unlimited
  | Current stacksize for task 5: unlimited
  | Current stacksize for task 6: unlimited
  | Current stacksize for task 7: unlimited
  | Current stacksize for task 8: unlimited
  | Current stacksize for task 9: unlimited
  | Current stacksize for task 10: unlimited
  | Current stacksize for task 11: unlimited
  | Current stacksize for task 12: unlimited
  | Current stacksize for task 13: unlimited
  | Current stacksize for task 14: unlimited
  | Current stacksize for task 15: unlimited
  | Current stacksize for task 16: unlimited
  | Current stacksize for task 17: unlimited
  | Current stacksize for task 18: unlimited
  | Current stacksize for task 19: unlimited
  | Current stacksize for task 20: unlimited
  | Current stacksize for task 21: unlimited
  | Current stacksize for task 22: unlimited
  | Current stacksize for task 23: unlimited
  | Current stacksize for task 24: unlimited
  | Current stacksize for task 25: unlimited
  | Current stacksize for task 26: unlimited
  | Current stacksize for task 27: unlimited
  | Current stacksize for task 28: unlimited
  | Current stacksize for task 29: unlimited
  | Current stacksize for task 30: unlimited
  | Current stacksize for task 31: unlimited
  | Current stacksize for task 32: unlimited
  | Current stacksize for task 33: unlimited
  | Current stacksize for task 34: unlimited
  | Current stacksize for task 35: unlimited
  | Current stacksize for task 36: unlimited
  | Current stacksize for task 37: unlimited
  | Current stacksize for task 38: unlimited
  | Current stacksize for task 39: unlimited
  | Current stacksize for task 40: unlimited
  | Current stacksize for task 41: unlimited
  | Current stacksize for task 42: unlimited
  | Current stacksize for task 43: unlimited
  | Current stacksize for task 44: unlimited
  | Current stacksize for task 45: unlimited
  | Current stacksize for task 46: unlimited
  | Current stacksize for task 47: unlimited
  | Current stacksize for task 48: unlimited
  | Current stacksize for task 49: unlimited
  | Current stacksize for task 50: unlimited
  | Current stacksize for task 51: unlimited
  | Current stacksize for task 52: unlimited
  | Current stacksize for task 53: unlimited
  | Current stacksize for task 54: unlimited
  | Current stacksize for task 55: unlimited
  | Current stacksize for task 56: unlimited
  | Current stacksize for task 57: unlimited
  | Current stacksize for task 58: unlimited
  | Current stacksize for task 59: unlimited
  | Current stacksize for task 60: unlimited
  | Current stacksize for task 61: unlimited
  | Current stacksize for task 62: unlimited
  | Current stacksize for task 63: unlimited
  | Current stacksize for task 64: unlimited
  | Current stacksize for task 65: unlimited
  | Current stacksize for task 66: unlimited
  | Current stacksize for task 67: unlimited
  | Current stacksize for task 68: unlimited
  | Current stacksize for task 69: unlimited
  | Current stacksize for task 70: unlimited
  | Current stacksize for task 71: unlimited
  | Current stacksize for task 72: unlimited
  | Current stacksize for task 73: unlimited
  | Current stacksize for task 74: unlimited
  | Current stacksize for task 75: unlimited
  | Current stacksize for task 76: unlimited
  | Current stacksize for task 77: unlimited
  | Current stacksize for task 78: unlimited
  | Current stacksize for task 79: unlimited
  | Current stacksize for task 80: unlimited
  | Current stacksize for task 81: unlimited
  | Current stacksize for task 82: unlimited
  | Current stacksize for task 83: unlimited
  | Current stacksize for task 84: unlimited
  | Current stacksize for task 85: unlimited
  | Current stacksize for task 86: unlimited
  | Current stacksize for task 87: unlimited
  | Current stacksize for task 88: unlimited
  | Current stacksize for task 89: unlimited
  | Current stacksize for task 90: unlimited
  | Current stacksize for task 91: unlimited
  | Current stacksize for task 92: unlimited
  | Current stacksize for task 93: unlimited
  | Current stacksize for task 94: unlimited
  | Current stacksize for task 95: unlimited
  | Current stacksize for task 96: unlimited
  | Current stacksize for task 97: unlimited
  | Current stacksize for task 98: unlimited
  | Current stacksize for task 99: unlimited
  | Current stacksize for task 100: unlimited
  | Current stacksize for task 101: unlimited
  | Current stacksize for task 102: unlimited
  | Current stacksize for task 103: unlimited
  | Current stacksize for task 104: unlimited
  | Current stacksize for task 105: unlimited
  | Current stacksize for task 106: unlimited
  | Current stacksize for task 107: unlimited
  | Current stacksize for task 108: unlimited
  | Current stacksize for task 109: unlimited
  | Current stacksize for task 110: unlimited
  | Current stacksize for task 111: unlimited
  | Current stacksize for task 112: unlimited
  | Current stacksize for task 113: unlimited
  | Current stacksize for task 114: unlimited
  | Current stacksize for task 115: unlimited
  | Current stacksize for task 116: unlimited
  | Current stacksize for task 117: unlimited
  | Current stacksize for task 118: unlimited
  | Current stacksize for task 119: unlimited
  | Current stacksize for task 120: unlimited
  | Current stacksize for task 121: unlimited
  | Current stacksize for task 122: unlimited
  | Current stacksize for task 123: unlimited
  | Current stacksize for task 124: unlimited
  | Current stacksize for task 125: unlimited
  | Current stacksize for task 126: unlimited
  | Current stacksize for task 127: unlimited
  | Current stacksize for task 128: unlimited
  | Current stacksize for task 129: unlimited
  | Current stacksize for task 130: unlimited
  | Current stacksize for task 131: unlimited
  | Current stacksize for task 132: unlimited
  | Current stacksize for task 133: unlimited
  | Current stacksize for task 134: unlimited
  | Current stacksize for task 135: unlimited
  | Current stacksize for task 136: unlimited
  | Current stacksize for task 137: unlimited
  | Current stacksize for task 138: unlimited
  | Current stacksize for task 139: unlimited
  | Current stacksize for task 140: unlimited
  | Current stacksize for task 141: unlimited
  | Current stacksize for task 142: unlimited
  | Current stacksize for task 143: unlimited
  | Current stacksize for task 144: unlimited
  | Current stacksize for task 145: unlimited
  | Current stacksize for task 146: unlimited
  | Current stacksize for task 147: unlimited
  | Current stacksize for task 148: unlimited
  | Current stacksize for task 149: unlimited
  | Current stacksize for task 150: unlimited
  | Current stacksize for task 151: unlimited
  | Current stacksize for task 152: unlimited
  | Current stacksize for task 153: unlimited
  | Current stacksize for task 154: unlimited
  | Current stacksize for task 155: unlimited
  | Current stacksize for task 156: unlimited
  | Current stacksize for task 157: unlimited
  | Current stacksize for task 158: unlimited
  | Current stacksize for task 159: unlimited
 
  Consistency checks for the contents of control.in are next.
 
  MPI_IN_PLACE appears to work with this MPI implementation.
  | Keeping use_mpi_in_place .true. (see manual).
  Target number of points in a grid batch is not set. Defaulting to  100
  Method for grid partitioning is not set. Defaulting to parallel hash+maxmin partitioning.
  Batch size limit is not set. Defaulting to    200
  By default, will store active basis functions for each batch.
  If in need of memory, prune_basis_once .false. can be used to disable this option.
  communication_type for Hartree potential was not specified.
  Defaulting to calc_hartree .
  Pulay mixer: Number of initial linear mixing iterations not set.
  Defaulting to    0 iterations.
  Work space size for distributed Hartree potential not set.
  Defaulting to   0.200000E+03 MB.
  Algorithm-dependent basis array size parameters:
  | n_max_pulay                         :       12
  Maximum number of self-consistency iterations not provided.
  Presetting  1000 iterations.
  Presetting      1001 iterations before the initial mixing cycle
  is restarted anyway using the sc_init_iter criterion / keyword.
  Presetting a factor      1.000 between actual scf density residual
  and density convergence criterion sc_accuracy_rho below which sc_init_iter
  takes no effect.
 * No s.c.f. convergence criteria (sc_accuracy_*) were provided in control.in.
 * The run will proceed with a reasonable default guess, but please check whether.
 * the s.c.f. cycles seem to take too much or too little time.
  Calculation of forces was not defined in control.in. No forces will be calculated.
  Geometry relaxation not requested: no relaxation will be performed.
Requested energy tolerance for BFGS, but no relaxation. Ignoring input.
 * Notice: The s.c.f. convergence criterion sc_accuracy_rho was not provided.
 * We used to stop in this case, and ask the user to provide reasonable
 * scf convergence criteria. However, this led some users to employ criteria
 * that led to extremely long run times, e.g., for simple relaxation.
 * We now preset a default value for sc_accuracy_rho if it is not set.
 * You may still wish to check if this setting is too tight or too loose for your needs.
 * Based on n_atoms, FHI-aims chose sc_accuracy_rho =  0.123333E-04 .
  No accuracy limit for integral partition fn. given. Defaulting to  0.1000E-14.
  No threshold value for u(r) in integrations given. Defaulting to  0.1000E-05.
  No accuracy for occupation numbers given. Defaulting to  0.1000E-12.
  No threshold value for occupation numbers given. Defaulting to  0.0000E+00.
  No accuracy for fermi level given. Defaulting to  0.1000E-19.
  Maximum # of iterations to find E_F not set. Defaulting to  200.
  Preferred method for the eigenvalue solver ('KS_method') not specified in 'control.in'.
  Calling BLACS routine to test compilation state
  Since ScaLAPACK support is enabled, defaulting to ELPA (via ELSI).
  Will not use alltoall communication since running on < 1024 CPUs.
  Threshold for basis singularities not set.
  Default threshold for basis singularities:  0.1000E-04
  partition_type (choice of integration weights) for integrals was not specified.
  | Using a version of the partition function of Stratmann and coworkers ('stratmann_sparse').
  | At each grid point, the set of atoms used to build the partition table is smoothly restricted to
  | only those atoms whose free-atom density would be non-zero at that grid point.
  Partitioning for Hartree potential was not defined. Using partition_type for integrals.
  | Adjusted default value of keyword multip_moments_threshold to:       0.10000000E-11
  | This value may affect high angular momentum components of the Hartree potential in periodic systems.
  Angular momentum expansion for Kerker preconditioner not set explicitly.
  | Using default value of   0
  No explicit requirement for turning off preconditioner.
  | By default, it will be turned off when the charge convergence reaches
  | sc_accuracy_rho  =   0.123333E-04
  No special mixing parameter while Kerker preconditioner is on.
  Using default: charge_mix_param =     0.1000.
  No q(lm)/r^(l+1) cutoff set for long-range Hartree potential.
  | Using default value of  0.100000E-09 .
  | Verify using the multipole_threshold keyword.
  Defaulting to new monopole extrapolation.
  Density update method: automatic selection selected.
  Using density matrix based charge density update.
  Using density matrix based charge density update.
  Using packed matrix style: index .
  Defaulting to use time-reversal symmetry for k-point grid.
  Charge integration errors on the 3D integration grid will be compensated
  by explicit normalization and distribution of residual charges.
  Use the "compensate_multipole_errors" flag to change this behaviour.
  * Volumetric cube output requested. Tightening default wave_threshold to 1d-8
 
  Consistency checks for the contents of geometry.in are next.
 

  Range separation radius for Ewald summation (hartree_convergence_parameter):      5.00000000 bohr.
  Number of empty states per atom not set in control.in - providing a guess from actual geometry.
  | Total number of empty states used during s.c.f. cycle:      282
  If you use a very high smearing, use empty_states (per atom!) in control.in to increase this value.

  Structure-dependent array size parameters: 
  | Maximum number of distinct radial functions  :       26
  | Maximum number of basis functions            :     3126
  | Number of Kohn-Sham states (occupied + empty):     1186
------------------------------------------------------------

------------------------------------------------------------
          Preparing all fixed parts of the calculation.
------------------------------------------------------------
  Determining machine precision:
    2.225073858507201E-308
  Setting up grids for atomic and cluster calculations.

  Creating wave function, potential, and density for free atoms.

  Species: S

  List of occupied orbitals and eigenvalues:
    n    l              occ      energy [Ha]    energy [eV]
    1    0           2.0000       -88.680731     -2413.1255
    2    0           2.0000        -7.781719      -211.7513
    3    0           2.0000        -0.633662       -17.2428
    2    1           6.0000        -5.751976      -156.5192
    3    1           4.0000        -0.257086        -6.9957


  Species: Mo

  List of occupied orbitals and eigenvalues:
    n    l              occ      energy [Ha]    energy [eV]
    1    0           2.0000      -745.344654    -20281.8600
    2    0           2.0000      -103.288246     -2810.6162
    3    0           2.0000       -17.516687      -476.6533
    4    0           2.0000        -2.358559       -64.1796
    5    0           1.0000        -0.145159        -3.9500
    2    1           6.0000       -92.308627     -2511.8455
    3    1           6.0000       -13.936005      -379.2180
    4    1           6.0000        -1.408138       -38.3174
    3    2          10.0000        -8.119011      -220.9295
    4    2           5.0000        -0.132984        -3.6187


  Adding cutoff potential to free-atom effective potential.
  Creating fixed part of basis set: Ionic, confined, hydrogenic.
 
  S                    ion:

  List of free ionic orbitals and eigenvalues:
    n    l      energy [Ha]    energy [eV]
    1    0       -89.703778     -2440.9640
    2    0        -8.775428      -238.7916
    3    0        -1.470343       -40.0101
    2    1        -6.747660      -183.6132
    3    1        -1.048627       -28.5346


  List of ionic basis orbitals and eigenvalues:
    n    l      energy [Ha]    energy [eV]    outer radius [A]
    3    2        -0.495605       -13.4861       5.587574
    3    0        -1.470336       -40.0099       4.166788

 
  S                    hydrogenic:
 
  List of hydrogenic basis orbitals: 
    n    l      effective z      eigenvalue [eV]  inner max. [A]     outer max. [A]     outer radius [A]   
    2    1         1.800000       -11.0118           1.168531           1.168531           5.587574
    4    3         7.000000       -41.6672           1.212182           1.212182           5.256262
    4    2         6.200000       -32.6848           0.582121           1.814567           5.587574
    5    4        10.800000       -63.4785           1.227092           1.227092           4.944596
 
 
  Mo                   ion:

  List of free ionic orbitals and eigenvalues:
    n    l      energy [Ha]    energy [eV]
    1    0      -746.048685    -20301.0176
    2    0      -103.980912     -2829.4646
    3    0       -18.206601      -495.4268
    4    0        -3.040545       -82.7374
    2    1       -93.001013     -2530.6863
    3    1       -14.625827      -397.9890
    4    1        -2.084855       -56.7318
    3    2        -8.808854      -239.7011
    4    2        -0.765435       -20.8285


  List of ionic basis orbitals and eigenvalues:
    n    l      energy [Ha]    energy [eV]    outer radius [A]
    5    1        -0.465587       -12.6693       5.591446
    5    0        -0.650331       -17.6964       5.591446

 
  Mo                   hydrogenic:
 
  List of hydrogenic basis orbitals: 
    n    l      effective z      eigenvalue [eV]  inner max. [A]     outer max. [A]     outer radius [A]   
    4    3         8.400000       -60.0010           1.009788           1.009788           4.654634
    3    2         2.800000       -11.8048           1.687401           1.687401           5.591446
    5    4        12.000000       -78.3687           1.100005           1.100005           4.654634
 
  Creating atomic-like basis functions for current effective potential.

  Species S                   :

  List of atomic basis orbitals and eigenvalues:
    n    l      energy [Ha]    energy [eV]    outer radius [A]
    1    0       -88.680731     -2413.1255       0.871402
    2    0        -7.781719      -211.7513       2.923031
    3    0        -0.633662       -17.2428       5.452614
    2    1        -5.751976      -156.5192       3.303131
    3    1        -0.257086        -6.9957       5.587574


  Species Mo                  :

  List of atomic basis orbitals and eigenvalues:
    n    l      energy [Ha]    energy [eV]    outer radius [A]
    1    0      -745.344654    -20281.8600       0.312279
    2    0      -103.288246     -2810.6162       0.850943
    3    0       -17.516687      -476.6533       2.051947
    4    0        -2.358559       -64.1796       4.948023
    5    0        -0.145159        -3.9500       5.591446
    2    1       -92.308627     -2511.8455       0.882731
    3    1       -13.936005      -379.2180       2.235275
    4    1        -1.408138       -38.3174       5.259905
    3    2        -8.119011      -220.9295       2.785462
    4    2        -0.132984        -3.6187       5.591446

  Assembling full basis from fixed parts.
  | Species S :   atomic orbital   1 s accepted.
  | Species S :   atomic orbital   2 s accepted.
  | Species S :    ionic orbital   3 s accepted.
  | Species S :   atomic orbital   3 s accepted.
  | Species S :   atomic orbital   2 p accepted.
  | Species S :   atomic orbital   3 p accepted.
  | Species S :    hydro orbital   2 p accepted.
  | Species S :    ionic orbital   3 d accepted.
  | Species S :    hydro orbital   4 d accepted.
  | Species S :    hydro orbital   4 f accepted.
  | Species S :    hydro orbital   5 g accepted.
  | Species Mo :   atomic orbital   1 s accepted.
  | Species Mo :   atomic orbital   2 s accepted.
  | Species Mo :   atomic orbital   3 s accepted.
  | Species Mo :   atomic orbital   4 s accepted.
  | Species Mo :   atomic orbital   5 s accepted.
  | Species Mo :    ionic orbital   5 s accepted.
  | Species Mo :   atomic orbital   2 p accepted.
  | Species Mo :   atomic orbital   3 p accepted.
  | Species Mo :   atomic orbital   4 p accepted.
  | Species Mo :    ionic orbital   5 p accepted.
  | Species Mo :   atomic orbital   3 d accepted.
  | Species Mo :   atomic orbital   4 d accepted.
  | Species Mo :    hydro orbital   3 d accepted.
  | Species Mo :    hydro orbital   4 f accepted.
  | Species Mo :    hydro orbital   5 g accepted.
 
  Basis size parameters after reduction:
  | Total number of radial functions:       26
  | Total number of basis functions :     3126
 
  Per-task memory consumption for arrays in subroutine allocate_ext:
  |           9.630448MB.
  Testing on-site integration grid accuracy.
  |  Species  Function  <phi|h_atom|phi> (log., in eV)  <phi|h_atom|phi> (rad., in eV)
           1        1              -2413.1254568977              -2413.1254096663
           1        2               -211.7513411281               -211.7513404762
           1        3                -16.9725280787                -16.9725279206
           1        4                  7.6024436204                  7.6024549059
           1        5               -156.5192206929               -156.5192205451
           1        6                 -6.9959757887                 -6.9959777655
           1        7                  6.8896462808                  6.8895564741
           1        8                  6.0214250550                  6.0214220200
           1        9                 19.6206468977                 19.6206494558
           1       10                 24.7008710786                 24.7008710738
           1       11                 47.5292252001                 47.5292260486
           2       12             -20281.8599610543             -20281.8584300616
           2       13              -2810.6161812280              -2810.6161551921
           2       14               -476.6533163555               -476.6533136395
           2       15                -64.1796433667                -64.1796426456
           2       16                 -3.9595702532                 -3.9596328763
           2       17                  5.0608548288                  5.0603628221
           2       18              -2511.8455406047              -2511.8455385741
           2       19               -379.2179896350               -379.2179882338
           2       20                -38.3173891619                -38.3173886619
           2       21                  0.2493245095                  0.2492931069
           2       22               -220.9295301098               -220.9295297081
           2       23                 -3.6195697699                 -3.6195754704
           2       24                  7.1428000922                  7.1426882355
           2       25                 23.3975871087                 23.3975871819
           2       26                 50.2449608881                 50.2449608586

  Preparing densities etc. for the partition functions (integrals / Hartree potential).

  Preparations completed.
  max(cpu_time)          :      0.438 s.
  Wall clock time (cpu1) :      0.579 s.
------------------------------------------------------------

------------------------------------------------------------
          Begin self-consistency loop: Initialization.

          Date     :  20210404, Time     :  224138.119
------------------------------------------------------------

  Initializing index lists of integration centers etc. from given atomic structure:
  Mapping all atomic coordinates to central unit cell.

  Initializing the k-points
  Using symmetry for reducing the k-points
  | k-points reduced from:        4 to        4
  | Number of k-points                             :         4
  The eigenvectors in the calculations are REAL.
  | Number of basis functions in the Hamiltonian integrals :      8557
  | Number of basis functions in a single unit cell        :      3126
  | Number of centers in hartree potential         :       746
  | Number of centers in hartree multipole         :       474
  | Number of centers in electron density summation:       430
  | Number of centers in basis integrals           :       430
  | Number of centers in integrals                 :       263
  | Number of centers in hamiltonian               :       430
  | Consuming          0 KiB for k_phase.
  | Number of super-cells (origin) [n_cells]                     :          75
  | Number of super-cells (after PM_index) [n_cells]             :          10
  | Number of super-cells in hamiltonian [n_cells_in_hamiltonian]:          10
  | Size of matrix packed + index [n_hamiltonian_matrix_size] :     6604698
  | Estimated reciprocal-space cutoff momentum G_max:         1.90186217 bohr^-1 .
  | Reciprocal lattice points for long-range Hartree potential:   17088
  Using simple linear distribution as default method for k-point parallelism.
  * Using 160 tasks for Scalapack Eigenvalue solver.
  Detailed listing of tasks and assigned k-points:
   Task     0 k-point     1 on co1523
   Task     1 k-point     1 on co1523
   Task     2 k-point     1 on co1523
   Task     3 k-point     1 on co1523
   Task     4 k-point     1 on co1523
   Task     5 k-point     1 on co1523
   Task     6 k-point     1 on co1523
   Task     7 k-point     1 on co1523
   Task     8 k-point     1 on co1523
   Task     9 k-point     1 on co1523
   Task    10 k-point     1 on co1523
   Task    11 k-point     1 on co1523
   Task    12 k-point     1 on co1523
   Task    13 k-point     1 on co1523
   Task    14 k-point     1 on co1523
   Task    15 k-point     1 on co1523
   Task    16 k-point     1 on co1523
   Task    17 k-point     1 on co1523
   Task    18 k-point     1 on co1523
   Task    19 k-point     1 on co1523
   Task    20 k-point     1 on co1523
   Task    21 k-point     1 on co1523
   Task    22 k-point     1 on co1523
   Task    23 k-point     1 on co1523
   Task    24 k-point     1 on co1523
   Task    25 k-point     1 on co1523
   Task    26 k-point     1 on co1523
   Task    27 k-point     1 on co1523
   Task    28 k-point     1 on co1523
   Task    29 k-point     1 on co1523
   Task    30 k-point     1 on co1523
   Task    31 k-point     1 on co1523
   Task    32 k-point     1 on co1523
   Task    33 k-point     1 on co1523
   Task    34 k-point     1 on co1523
   Task    35 k-point     1 on co1523
   Task    36 k-point     1 on co1523
   Task    37 k-point     1 on co1523
   Task    38 k-point     1 on co1523
   Task    39 k-point     1 on co1523
   Task    40 k-point     2 on co1529
   Task    41 k-point     2 on co1529
   Task    42 k-point     2 on co1529
   Task    43 k-point     2 on co1529
   Task    44 k-point     2 on co1529
   Task    45 k-point     2 on co1529
   Task    46 k-point     2 on co1529
   Task    47 k-point     2 on co1529
   Task    48 k-point     2 on co1529
   Task    49 k-point     2 on co1529
   Task    50 k-point     2 on co1529
   Task    51 k-point     2 on co1529
   Task    52 k-point     2 on co1529
   Task    53 k-point     2 on co1529
   Task    54 k-point     2 on co1529
   Task    55 k-point     2 on co1529
   Task    56 k-point     2 on co1529
   Task    57 k-point     2 on co1529
   Task    58 k-point     2 on co1529
   Task    59 k-point     2 on co1529
   Task    60 k-point     2 on co1529
   Task    61 k-point     2 on co1529
   Task    62 k-point     2 on co1529
   Task    63 k-point     2 on co1529
   Task    64 k-point     2 on co1529
   Task    65 k-point     2 on co1529
   Task    66 k-point     2 on co1529
   Task    67 k-point     2 on co1529
   Task    68 k-point     2 on co1529
   Task    69 k-point     2 on co1529
   Task    70 k-point     2 on co1529
   Task    71 k-point     2 on co1529
   Task    72 k-point     2 on co1529
   Task    73 k-point     2 on co1529
   Task    74 k-point     2 on co1529
   Task    75 k-point     2 on co1529
   Task    76 k-point     2 on co1529
   Task    77 k-point     2 on co1529
   Task    78 k-point     2 on co1529
   Task    79 k-point     2 on co1529
   Task    80 k-point     3 on co1530
   Task    81 k-point     3 on co1530
   Task    82 k-point     3 on co1530
   Task    83 k-point     3 on co1530
   Task    84 k-point     3 on co1530
   Task    85 k-point     3 on co1530
   Task    86 k-point     3 on co1530
   Task    87 k-point     3 on co1530
   Task    88 k-point     3 on co1530
   Task    89 k-point     3 on co1530
   Task    90 k-point     3 on co1530
   Task    91 k-point     3 on co1530
   Task    92 k-point     3 on co1530
   Task    93 k-point     3 on co1530
   Task    94 k-point     3 on co1530
   Task    95 k-point     3 on co1530
   Task    96 k-point     3 on co1530
   Task    97 k-point     3 on co1530
   Task    98 k-point     3 on co1530
   Task    99 k-point     3 on co1530
   Task   100 k-point     3 on co1530
   Task   101 k-point     3 on co1530
   Task   102 k-point     3 on co1530
   Task   103 k-point     3 on co1530
   Task   104 k-point     3 on co1530
   Task   105 k-point     3 on co1530
   Task   106 k-point     3 on co1530
   Task   107 k-point     3 on co1530
   Task   108 k-point     3 on co1530
   Task   109 k-point     3 on co1530
   Task   110 k-point     3 on co1530
   Task   111 k-point     3 on co1530
   Task   112 k-point     3 on co1530
   Task   113 k-point     3 on co1530
   Task   114 k-point     3 on co1530
   Task   115 k-point     3 on co1530
   Task   116 k-point     3 on co1530
   Task   117 k-point     3 on co1530
   Task   118 k-point     3 on co1530
   Task   119 k-point     3 on co1530
   Task   120 k-point     4 on co1536
   Task   121 k-point     4 on co1536
   Task   122 k-point     4 on co1536
   Task   123 k-point     4 on co1536
   Task   124 k-point     4 on co1536
   Task   125 k-point     4 on co1536
   Task   126 k-point     4 on co1536
   Task   127 k-point     4 on co1536
   Task   128 k-point     4 on co1536
   Task   129 k-point     4 on co1536
   Task   130 k-point     4 on co1536
   Task   131 k-point     4 on co1536
   Task   132 k-point     4 on co1536
   Task   133 k-point     4 on co1536
   Task   134 k-point     4 on co1536
   Task   135 k-point     4 on co1536
   Task   136 k-point     4 on co1536
   Task   137 k-point     4 on co1536
   Task   138 k-point     4 on co1536
   Task   139 k-point     4 on co1536
   Task   140 k-point     4 on co1536
   Task   141 k-point     4 on co1536
   Task   142 k-point     4 on co1536
   Task   143 k-point     4 on co1536
   Task   144 k-point     4 on co1536
   Task   145 k-point     4 on co1536
   Task   146 k-point     4 on co1536
   Task   147 k-point     4 on co1536
   Task   148 k-point     4 on co1536
   Task   149 k-point     4 on co1536
   Task   150 k-point     4 on co1536
   Task   151 k-point     4 on co1536
   Task   152 k-point     4 on co1536
   Task   153 k-point     4 on co1536
   Task   154 k-point     4 on co1536
   Task   155 k-point     4 on co1536
   Task   156 k-point     4 on co1536
   Task   157 k-point     4 on co1536
   Task   158 k-point     4 on co1536
   Task   159 k-point     4 on co1536
  K-point:     1 Tasks:    40 split into      8 X      5 BLACS grid
  Calculating block size based on n_basis =         3126  max_nprow =            8  max_npcol =            5
[...]
   1064       0.00000           0.117098            3.18641
   1065       0.00000           0.117100            3.18645
   1066       0.00000           0.117394            3.19446
   1067       0.00000           0.117395            3.19449
   1068       0.00000           0.118606            3.22742
   1069       0.00000           0.121245            3.29924
   1070       0.00000           0.121912            3.31739
   1071       0.00000           0.121915            3.31747
   1072       0.00000           0.129040            3.51136
   1073       0.00000           0.129831            3.53288
   1074       0.00000           0.129831            3.53289
   1075       0.00000           0.134674            3.66467
   1076       0.00000           0.134675            3.66470
   1077       0.00000           0.135911            3.69833
   1078       0.00000           0.136653            3.71850
   1079       0.00000           0.138716            3.77466
   1080       0.00000           0.139586            3.79833
   1081       0.00000           0.139587            3.79836
   1082       0.00000           0.140518            3.82368
   1083       0.00000           0.142551            3.87901
   1084       0.00000           0.142553            3.87906
   1085       0.00000           0.142970            3.89040
   1086       0.00000           0.142973            3.89050
   1087       0.00000           0.146458            3.98533
   1088       0.00000           0.147947            4.02584
   1089       0.00000           0.147951            4.02594
   1090       0.00000           0.150603            4.09812
   1091       0.00000           0.150765            4.10252
   1092       0.00000           0.150767            4.10257
   1093       0.00000           0.152485            4.14932
   1094       0.00000           0.153316            4.17195
   1095       0.00000           0.154165            4.19504
   1096       0.00000           0.154172            4.19523
   1097       0.00000           0.155202            4.22327
   1098       0.00000           0.155850            4.24090
   1099       0.00000           0.155858            4.24112
   1100       0.00000           0.156821            4.26731
   1101       0.00000           0.156908            4.26968
   1102       0.00000           0.156910            4.26974
   1103       0.00000           0.157549            4.28712
   1104       0.00000           0.157737            4.29225
   1105       0.00000           0.157739            4.29229
   1106       0.00000           0.160085            4.35613
   1107       0.00000           0.160085            4.35614
   1108       0.00000           0.160418            4.36520
   1109       0.00000           0.160420            4.36524
   1110       0.00000           0.160750            4.37424
   1111       0.00000           0.161119            4.38427
   1112       0.00000           0.161122            4.38436
   1113       0.00000           0.162024            4.40890
   1114       0.00000           0.163690            4.45422
   1115       0.00000           0.164324            4.47147
   1116       0.00000           0.164324            4.47150
   1117       0.00000           0.165134            4.49353
   1118       0.00000           0.165136            4.49357
   1119       0.00000           0.165573            4.50548
   1120       0.00000           0.165576            4.50555
   1121       0.00000           0.166424            4.52862
   1122       0.00000           0.167418            4.55569
   1123       0.00000           0.171763            4.67392
   1124       0.00000           0.171765            4.67397
   1125       0.00000           0.172004            4.68046
   1126       0.00000           0.176469            4.80196
   1127       0.00000           0.176473            4.80209
   1128       0.00000           0.180331            4.90705
   1129       0.00000           0.190341            5.17944
   1130       0.00000           0.191023            5.19799
   1131       0.00000           0.191025            5.19807
   1132       0.00000           0.194255            5.28596
   1133       0.00000           0.194259            5.28605
   1134       0.00000           0.195226            5.31236
   1135       0.00000           0.198369            5.39790
   1136       0.00000           0.199566            5.43048
   1137       0.00000           0.199568            5.43053
   1138       0.00000           0.202035            5.49766
   1139       0.00000           0.202683            5.51529
   1140       0.00000           0.202685            5.51533
   1141       0.00000           0.206801            5.62734
   1142       0.00000           0.206806            5.62747
   1143       0.00000           0.206989            5.63245
   1144       0.00000           0.213322            5.80479
   1145       0.00000           0.213323            5.80483
   1146       0.00000           0.213654            5.81381
   1147       0.00000           0.213657            5.81389
   1148       0.00000           0.216333            5.88672
   1149       0.00000           0.216396            5.88845
   1150       0.00000           0.216400            5.88853
   1151       0.00000           0.216734            5.89764
   1152       0.00000           0.218978            5.95869
   1153       0.00000           0.218982            5.95880
   1154       0.00000           0.219885            5.98337
   1155       0.00000           0.220056            5.98804
   1156       0.00000           0.220059            5.98811
   1157       0.00000           0.220214            5.99232
   1158       0.00000           0.223932            6.09350
   1159       0.00000           0.230915            6.28351
   1160       0.00000           0.232060            6.31468
   1161       0.00000           0.233971            6.36668
   1162       0.00000           0.233977            6.36684
   1163       0.00000           0.234688            6.38619
   1164       0.00000           0.235853            6.41789
   1165       0.00000           0.235855            6.41794
   1166       0.00000           0.235945            6.42039
   1167       0.00000           0.238463            6.48890
   1168       0.00000           0.238463            6.48891
   1169       0.00000           0.238699            6.49533
   1170       0.00000           0.238700            6.49536
   1171       0.00000           0.239653            6.52130
   1172       0.00000           0.242777            6.60630
   1173       0.00000           0.242778            6.60632
   1174       0.00000           0.243531            6.62682
   1175       0.00000           0.243540            6.62707
   1176       0.00000           0.244342            6.64889
   1177       0.00000           0.248369            6.75847
   1178       0.00000           0.248372            6.75856
   1179       0.00000           0.253448            6.89667
   1180       0.00000           0.253450            6.89672
   1181       0.00000           0.254070            6.91359
   1182       0.00000           0.254073            6.91367
   1183       0.00000           0.254521            6.92587
   1184       0.00000           0.254976            6.93824
   1185       0.00000           0.254978            6.93832
   1186       0.00000           0.256303            6.97435

  What follows are estimated values for band gap, HOMO, LUMO, etc.
  | They are estimated on a discrete k-point grid and not necessarily exact.
  | For converged numbers, create a DOS and/or band structure plot on a denser k-grid.

  Highest occupied state (VBM) at     -5.73057074 eV (relative to internal zero)
  | Occupation number:      2.00000000
  | K-point:       3 at    0.500000    0.000000    0.000000 (in units of recip. lattice)

  Lowest unoccupied state (CBM) at    -5.40558397 eV (relative to internal zero)
  | Occupation number:      0.00000000
  | K-point:       1 at    0.000000    0.000000    0.000000 (in units of recip. lattice)

  ESTIMATED overall HOMO-LUMO gap:      0.32498677 eV between HOMO at k-point 3 and LUMO at k-point 1
  | This appears to be an indirect band gap.
  | Smallest direct gap :      0.33330085 eV for k_point 3 at    0.500000    0.000000    0.000000 (in units of recip. lattice)
  The gap value is above 0.2 eV. Unless you are using a very sparse k-point grid,
  this system is most likely an insulator or a semiconductor.

  Writing energy levels:
  | Potential vacuum level, "upper" slab surface:    -0.03596008 eV
  | Potential vacuum level, "lower" slab surface:    -0.03596008 eV
  | Work function ("upper" slab surface)        :     5.52968189 eV
  | Work function ("lower" slab surface)        :     5.52968189 eV
  *** Warning: band gap may exist, check the suitability to define work function using chemical potential.
  | VBM (reference: upper vacuum level)         :     5.69461066 eV
  | CBM (reference: upper vacuum level)         :     5.36962389 eV

  Self-consistency cycle converged.

  End self-consistency iteration #    26       :  max(cpu_time)    wall_clock(cpu1)
  | Time for this iteration                    :        5.019 s           5.023 s
  | Charge density update                      :        0.000 s           0.000 s
  | Density mixing                             :        0.380 s           0.380 s
  | Hartree multipole update                   :        0.011 s           0.011 s
  | Hartree multipole summation                :        1.811 s           1.811 s
  | Integration                                :        2.382 s           2.383 s
  | Solution of K.-S. eqns.                    :        0.430 s           0.431 s
  | Total energy evaluation                    :        0.000 s           0.001 s

  Partial memory accounting:
  | Current value for overall tracked memory usage:
  |   Minimum:       65.647 MB (on task  21)
  |   Maximum:       65.930 MB (on task   0)
  |   Average:       65.754 MB
  | Peak value for overall tracked memory usage:
  |   Minimum:      166.422 MB (on task  21 after allocating temp_ham_ovlp)
  |   Maximum:      166.705 MB (on task   0 after allocating temp_ham_ovlp)
  |   Average:      166.529 MB
  | Largest tracked array allocation so far:
  |   Minimum:       50.390 MB (overlap_matrix on task   0)
  |   Maximum:       50.390 MB (overlap_matrix on task   0)
  |   Average:       50.390 MB
  Note:  These values currently only include a subset of arrays which are explicitly tracked.
  The "true" memory usage will be greater.
------------------------------------------------------------

  Energy and forces in a compact form:
  | Total energy uncorrected      :         -0.321366973855072E+07 eV
  | Total energy corrected        :         -0.321366973855072E+07 eV  <-- do not rely on this value for anything but (periodic) metals
  | Electronic free energy        :         -0.321366973855072E+07 eV

  ------------------------------------ 
  Start decomposition of the XC Energy 
  ------------------------------------ 
  X and C from original XC functional choice 
  Hartree-Fock Energy :          0.000000000 Ha              0.000000000 eV
  X Energy            :      -4180.513689317 Ha        -113757.565407529 eV
  C Energy            :        -84.727873767 Ha          -2305.562750944 eV
  Total XC Energy     :      -4265.241563085 Ha        -116063.128158474 eV
  ------------------------------------ 
  LDA X and C from self-consistent density 
  X Energy LDA        :      -3947.655188837 Ha        -107421.163216861 eV
  C Energy LDA        :       -156.291576116 Ha          -4252.910171794 eV
  ------------------------------------ 
  End decomposition of the XC Energy 
  ------------------------------------ 

------------------------------------------------------------

  ------------------------------------------------------------
                      Starting Cube Output
  ------------------------------------------------------------

  The following cube files will be created:

  --------------------------------------
    Cube file:            1
    cube origin       3.9750      6.8849      3.0725
    cube edge 100      0.1590      0.0000      0.0000
    cube edge 100     -0.0795      0.1377      0.0000
    cube edge 105      0.0000      0.0000      0.1000
    cube filename: cube_001_first_order_density.cube
  --------------------------------------

  * WARNING: The output  of  the cube file is in 1/Ang^3  or
  * WARNING: 1/Ang^3/2,  but  the cube voxel  definition  is
  * WARNING: in atomic units. Be careful when postprocessing
  * WARNING: Consistent units can be chosen in control.in by
  *               cube_content_unit  bohr

  Evaluating density matrix
  Finished density matrix calculation
  | Time :     0.026 s
 
   Starting cube            1
   Cube will be divided in
     100 minicubes along the first,
     100 minicubes along the second, and
     105 minicubes along the third cube edge
   Dividing grid points on processors

      => Writing 4101kB binary STM file for WSxM.

   Cube file 1 finished.

  Cube output                                             :  max(cpu_time)    wall_clock(cpu1)
  | Total time for cube output                            :         50.856              51.210
------------------------------------------------------------

------------------------------------------------------------------------------
  Final output of selected total energy values:

  The following output summarizes some interesting total energy values
  at the end of a run (AFTER all relaxation, molecular dynamics, etc.).

  | Total energy of the DFT / Hartree-Fock s.c.f. calculation      :       -3213669.738550715 eV
  | Final zero-broadening corrected energy (caution - metals only) :       -3213669.738550715 eV
  | For reference only, the value of 1 Hartree used in FHI-aims is :             27.211384500 eV
  | For reference only, the overall average (free atom contribution
  | + realspace contribution) of the electrostatic potential after
  | s.c.f. convergence is                                          :             -1.085585293 eV

  Before relying on these values, please be sure to understand exactly which
  total energy value is referred to by a given number. Different objects may
  all carry the same name 'total energy'. Definitions:

  Total energy of the DFT / Hartree-Fock s.c.f. calculation:
  | Note that this energy does not include ANY quantities calculated after the
  | s.c.f. cycle, in particular not ANY RPA, MP2, etc. many-body perturbation terms.

  Final zero-broadening corrected energy:
  | For metallic systems only, a broadening of the occupation numbers at the Fermi
  | level can be extrapolated back to zero broadening by an electron-gas inspired
  | formula. For all systems that are not real metals, this value can be
  | meaningless and should be avoided.

------------------------------------------------------------------------------
  Methods described in the following list of references were used in this FHI-aims run.
  If you publish the results, please make sure to cite these reference if they apply.
  FHI-aims is an academic code, and for our developers (often, Ph.D. students
  and postdocs), scientific credit in the community is essential.
  Thank you for helping us!

  For any use of FHI-aims, please cite:

    Volker Blum, Ralf Gehrke, Felix Hanke, Paula Havu, Ville Havu,
    Xinguo Ren, Karsten Reuter, and Matthias Scheffler
    'Ab initio molecular simulations with numeric atom-centered orbitals'
    Computer Physics Communications 180, 2175-2196 (2009)
    http://dx.doi.org/10.1016/j.cpc.2009.06.022


  The provided symmetry information was generated with SPGlib:

    Atsushi Togo, Yusuke Seto, Dimitar Pashov
    SPGlib 1.7.3 obtained from http://spglib.sourceforge.net
    Copyright (C) 2008 Atsushi Togo


  The ELSI infrastructure was used in your run to solve the Kohn-Sham electronic structure.
  Please check out http://elsi-interchange.org to learn more.
  If scalability is important for your project, please acknowledge ELSI by citing:

    V. W-z. Yu, F. Corsetti, A. Garcia, W. P. Huhn, M. Jacquelin, W. Jia,
    B. Lange, L. Lin, J. Lu, W. Mi, A. Seifitokaldani, A. Vazquez-Mayagoitia,
    C. Yang, H. Yang, and V. Blum
    'ELSI: A unified software interface for Kohn-Sham electronic structure solvers'
    Computer Physics Communications 222, 267-285 (2018).
    http://dx.doi.org/10.1016/j.cpc.2017.09.007


  For the real-space grid partitioning and parallelization used in this calculation, please cite:

    Ville Havu, Volker Blum, Paula Havu, and Matthias Scheffler,
    'Efficient O(N) integration for all-electron electronic structure calculation'
    'using numerically tabulated basis functions'
    Journal of Computational Physics 228, 8367-8379 (2009).
    http://dx.doi.org/10.1016/j.jcp.2009.08.008

  Of course, there are many other important community references, e.g., those cited in the
  above references. Our list is limited to references that describe implementations in the
  FHI-aims code. The reason is purely practical (length of this list) - please credit others as well.

 * A warning regarding the cube file format (cube_content_unit legacy)
 * was issued above. The output is Angstrom-based but the cube voxel
 * definition is in atomic units. Please check carefully.

------------------------------------------------------------
          Leaving FHI-aims.
          Date     :  20210404, Time     :  224628.774

          Computational steps:
          | Number of self-consistency cycles          :           26
          | Number of SCF (re)initializations          :            1

          Detailed time accounting                     :  max(cpu_time)    wall_clock(cpu1)
          | Total time                                 :      291.483 s         293.115 s
          | Preparation time                           :        0.438 s           0.579 s
          | Boundary condition initalization           :        1.103 s           1.103 s
          | Grid partitioning                          :        1.258 s           1.259 s
          | Preloading free-atom quantities on grid    :        0.640 s           0.664 s
          | Free-atom superposition energy             :        0.069 s           0.070 s
          | Total time for integrations                :       66.256 s          66.368 s
          | Total time for solution of K.-S. equations :       12.782 s          12.885 s
          | Total time for density update              :      102.390 s         102.464 s
          | Total time for mixing & preconditioning    :       10.175 s          10.180 s
          | Total time for Hartree multipole update    :        0.301 s           0.300 s
          | Total time for Hartree multipole sum       :       43.364 s          43.394 s
          | Total time for total energy evaluation     :        0.020 s           0.025 s
          | Total time for scaled ZORA corrections     :        0.000 s           0.000 s
          | Total time for cube output                 :       50.856 s          51.210 s

          Partial memory accounting:
          | Residual value for overall tracked memory usage across tasks:     0.000000 MB (should be 0.000000 MB)
          | Peak values for overall tracked memory usage:
          |   Minimum:      166.422 MB (on task  21 after allocating temp_ham_ovlp)
          |   Maximum:      166.705 MB (on task   0 after allocating temp_ham_ovlp)
          |   Average:      166.529 MB
          | Largest tracked array allocation:
          |   Minimum:       50.390 MB (overlap_matrix on task   0)
          |   Maximum:       50.390 MB (overlap_matrix on task   0)
          |   Average:       50.390 MB
          Note:  These values currently only include a subset of arrays which are explicitly tracked.
          The "true" memory usage will be greater.

          Have a nice day.
------------------------------------------------------------
