------------------------------------------------------------
          Invoking FHI-aims ...

          When using FHI-aims, please cite the following reference:

            Volker Blum, Ralf Gehrke, Felix Hanke, Paula Havu,
            Ville Havu, Xinguo Ren, Karsten Reuter, and Matthias Scheffler,
            'Ab Initio Molecular Simulations with Numeric Atom-Centered Orbitals',
            Computer Physics Communications 180, 2175-2196 (2009)

          In addition, many other developments in FHI-aims are likely important for
          your particular application. A partial list of references is given at the end of
          this file. Thank you for giving credit to the authors of these developments.

          For any questions about FHI-aims, please visit our slack channel at

            https://fhi-aims.slack.com

          and our main development and support site at

            https://aims-git.rz-berlin.mpg.de .

          The latter site, in particular, has a wiki to collect information, as well
          as an issue tracker to log discussions, suggest improvements, and report issues
          or bugs. https://aims-git.rz-berlin.mpg.de is also the main development site
          of the project and all new and updated code versions can be obtained there.
          Please send an email to aims-coordinators@fhi-berlin.mpg.de and we will add
          you to these sites. They are for you and everyone is welcome there.

------------------------------------------------------------



  Date     :  20220117, Time     :  114404.067
  Time zero on CPU 1             :   0.253980800000000E+01  s.
  Internal wall clock time zero  :           411651844.067  s.

  FHI-aims created a unique identifier for this run for later identification
  aims_uuid : 7A538F84-8899-400C-ACDC-067A1C8895BB

  Build configuration of the current instance of FHI-aims
  -------------------------------------------------------
  FHI-aims version      : 211206
  Commit number         : 89e815567
  CMake host system     : Linux-5.3.18-24.86-default
  CMake version         : 3.22.0
  Fortran compiler      : /mpcdf/soft/SLE_15/packages/x86_64/intel_parallel_studio/2020.2/compilers_and_libraries_2020.2.254/linux/mpi/intel64/bin/mpiifort (Intel) version 19.1.2.20200623
  Fortran compiler flags: -O3 -ip -fp-model precise
  C compiler            : /mpcdf/soft/SLE_15/packages/x86_64/intel/19.1.2/bin/icc (Intel) version 19.1.2.20200623
  C compiler flags      : -O3 -ip -fp-model precise
  C++ compiler          : /mpcdf/soft/SLE_15/packages/x86_64/intel/19.1.2/bin/icpc (Intel) version 19.1.2.20200623
  C++ compiler flags    : -O3 -ip -fp-model precise
  Using MPI
  Using ScaLAPACK
  Using LibXC
  Using i-PI
  Using RLSY
  Linking against: /mpcdf/soft/SLE_15/packages/x86_64/intel_oneapi/2021.2/mkl/latest/lib/intel64/libmkl_intel_lp64.so
                   /mpcdf/soft/SLE_15/packages/x86_64/intel_oneapi/2021.2/mkl/latest/lib/intel64/libmkl_sequential.so
                   /mpcdf/soft/SLE_15/packages/x86_64/intel_oneapi/2021.2/mkl/latest/lib/intel64/libmkl_core.so
                   /mpcdf/soft/SLE_15/packages/x86_64/intel_oneapi/2021.2/mkl/latest/lib/intel64/libmkl_blacs_intelmpi_lp64.so
                   /mpcdf/soft/SLE_15/packages/x86_64/intel_oneapi/2021.2/mkl/latest/lib/intel64/libmkl_scalapack_lp64.so

  Using      216 parallel tasks.
  Task        0 on host ravg1025 reporting.
  Task        1 on host ravg1025 reporting.
  Task        2 on host ravg1025 reporting.
  Task        3 on host ravg1025 reporting.
  Task        4 on host ravg1025 reporting.
  Task        5 on host ravg1025 reporting.
  Task        6 on host ravg1025 reporting.
  Task        7 on host ravg1025 reporting.
  Task        8 on host ravg1025 reporting.
  Task        9 on host ravg1025 reporting.
  Task       10 on host ravg1025 reporting.
  Task       11 on host ravg1025 reporting.
  Task       12 on host ravg1025 reporting.
  Task       13 on host ravg1025 reporting.
  Task       14 on host ravg1025 reporting.
  Task       15 on host ravg1025 reporting.
  Task       16 on host ravg1025 reporting.
  Task       17 on host ravg1025 reporting.
  Task       18 on host ravg1025 reporting.
  Task       19 on host ravg1025 reporting.
  Task       20 on host ravg1025 reporting.
  Task       21 on host ravg1025 reporting.
  Task       22 on host ravg1025 reporting.
  Task       23 on host ravg1025 reporting.
  Task       24 on host ravg1025 reporting.
  Task       25 on host ravg1025 reporting.
  Task       26 on host ravg1025 reporting.
  Task       27 on host ravg1025 reporting.
  Task       28 on host ravg1025 reporting.
  Task       29 on host ravg1025 reporting.
  Task       30 on host ravg1025 reporting.
  Task       31 on host ravg1025 reporting.
  Task       32 on host ravg1025 reporting.
  Task       33 on host ravg1025 reporting.
  Task       34 on host ravg1025 reporting.
  Task       35 on host ravg1025 reporting.
  Task       36 on host ravg1025 reporting.
  Task       37 on host ravg1025 reporting.
  Task       38 on host ravg1025 reporting.
  Task       39 on host ravg1025 reporting.
  Task       40 on host ravg1025 reporting.
  Task       41 on host ravg1025 reporting.
  Task       42 on host ravg1025 reporting.
  Task       43 on host ravg1025 reporting.
  Task       44 on host ravg1025 reporting.
  Task       45 on host ravg1025 reporting.
  Task       46 on host ravg1025 reporting.
  Task       47 on host ravg1025 reporting.
  Task       48 on host ravg1025 reporting.
  Task       49 on host ravg1025 reporting.
  Task       50 on host ravg1025 reporting.
  Task       51 on host ravg1025 reporting.
  Task       52 on host ravg1025 reporting.
  Task       53 on host ravg1025 reporting.
  Task       54 on host ravg1025 reporting.
  Task       55 on host ravg1025 reporting.
  Task       56 on host ravg1025 reporting.
  Task       57 on host ravg1025 reporting.
  Task       58 on host ravg1025 reporting.
  Task       59 on host ravg1025 reporting.
  Task       60 on host ravg1025 reporting.
  Task       61 on host ravg1025 reporting.
  Task       62 on host ravg1025 reporting.
  Task       63 on host ravg1025 reporting.
  Task       64 on host ravg1025 reporting.
  Task       65 on host ravg1025 reporting.
  Task       66 on host ravg1025 reporting.
  Task       67 on host ravg1025 reporting.
  Task       68 on host ravg1025 reporting.
  Task       69 on host ravg1025 reporting.
  Task       70 on host ravg1025 reporting.
  Task       71 on host ravg1025 reporting.
  Task       72 on host ravg1028 reporting.
  Task       73 on host ravg1028 reporting.
  Task       74 on host ravg1028 reporting.
  Task       75 on host ravg1028 reporting.
  Task       76 on host ravg1028 reporting.
  Task       77 on host ravg1028 reporting.
  Task       78 on host ravg1028 reporting.
  Task       79 on host ravg1028 reporting.
  Task       80 on host ravg1028 reporting.
  Task       81 on host ravg1028 reporting.
  Task       82 on host ravg1028 reporting.
  Task       83 on host ravg1028 reporting.
  Task       84 on host ravg1028 reporting.
  Task       85 on host ravg1028 reporting.
  Task       86 on host ravg1028 reporting.
  Task       87 on host ravg1028 reporting.
  Task       88 on host ravg1028 reporting.
  Task       89 on host ravg1028 reporting.
  Task       90 on host ravg1028 reporting.
  Task       91 on host ravg1028 reporting.
  Task       92 on host ravg1028 reporting.
  Task       93 on host ravg1028 reporting.
  Task       94 on host ravg1028 reporting.
  Task       95 on host ravg1028 reporting.
  Task       96 on host ravg1028 reporting.
  Task       97 on host ravg1028 reporting.
  Task       98 on host ravg1028 reporting.
  Task       99 on host ravg1028 reporting.
  Task      100 on host ravg1028 reporting.
  Task      101 on host ravg1028 reporting.
  Task      102 on host ravg1028 reporting.
  Task      103 on host ravg1028 reporting.
  Task      104 on host ravg1028 reporting.
  Task      105 on host ravg1028 reporting.
  Task      106 on host ravg1028 reporting.
  Task      107 on host ravg1028 reporting.
  Task      108 on host ravg1028 reporting.
  Task      109 on host ravg1028 reporting.
  Task      110 on host ravg1028 reporting.
  Task      111 on host ravg1028 reporting.
  Task      112 on host ravg1028 reporting.
  Task      113 on host ravg1028 reporting.
  Task      114 on host ravg1028 reporting.
  Task      115 on host ravg1028 reporting.
  Task      116 on host ravg1028 reporting.
  Task      117 on host ravg1028 reporting.
  Task      118 on host ravg1028 reporting.
  Task      119 on host ravg1028 reporting.
  Task      120 on host ravg1028 reporting.
  Task      121 on host ravg1028 reporting.
  Task      122 on host ravg1028 reporting.
  Task      123 on host ravg1028 reporting.
  Task      124 on host ravg1028 reporting.
  Task      125 on host ravg1028 reporting.
  Task      126 on host ravg1028 reporting.
  Task      127 on host ravg1028 reporting.
  Task      128 on host ravg1028 reporting.
  Task      129 on host ravg1028 reporting.
  Task      130 on host ravg1028 reporting.
  Task      131 on host ravg1028 reporting.
  Task      132 on host ravg1028 reporting.
  Task      133 on host ravg1028 reporting.
  Task      134 on host ravg1028 reporting.
  Task      135 on host ravg1028 reporting.
  Task      136 on host ravg1028 reporting.
  Task      137 on host ravg1028 reporting.
  Task      138 on host ravg1028 reporting.
  Task      139 on host ravg1028 reporting.
  Task      140 on host ravg1028 reporting.
  Task      141 on host ravg1028 reporting.
  Task      142 on host ravg1028 reporting.
  Task      143 on host ravg1028 reporting.
  Task      144 on host ravg1031 reporting.
  Task      145 on host ravg1031 reporting.
  Task      146 on host ravg1031 reporting.
  Task      147 on host ravg1031 reporting.
  Task      148 on host ravg1031 reporting.
  Task      149 on host ravg1031 reporting.
  Task      150 on host ravg1031 reporting.
  Task      151 on host ravg1031 reporting.
  Task      152 on host ravg1031 reporting.
  Task      153 on host ravg1031 reporting.
  Task      154 on host ravg1031 reporting.
  Task      155 on host ravg1031 reporting.
  Task      156 on host ravg1031 reporting.
  Task      157 on host ravg1031 reporting.
  Task      158 on host ravg1031 reporting.
  Task      159 on host ravg1031 reporting.
  Task      160 on host ravg1031 reporting.
  Task      161 on host ravg1031 reporting.
  Task      162 on host ravg1031 reporting.
  Task      163 on host ravg1031 reporting.
  Task      164 on host ravg1031 reporting.
  Task      165 on host ravg1031 reporting.
  Task      166 on host ravg1031 reporting.
  Task      167 on host ravg1031 reporting.
  Task      168 on host ravg1031 reporting.
  Task      169 on host ravg1031 reporting.
  Task      170 on host ravg1031 reporting.
  Task      171 on host ravg1031 reporting.
  Task      172 on host ravg1031 reporting.
  Task      173 on host ravg1031 reporting.
  Task      174 on host ravg1031 reporting.
  Task      175 on host ravg1031 reporting.
  Task      176 on host ravg1031 reporting.
  Task      177 on host ravg1031 reporting.
  Task      178 on host ravg1031 reporting.
  Task      179 on host ravg1031 reporting.
  Task      180 on host ravg1031 reporting.
  Task      181 on host ravg1031 reporting.
  Task      182 on host ravg1031 reporting.
  Task      183 on host ravg1031 reporting.
  Task      184 on host ravg1031 reporting.
  Task      185 on host ravg1031 reporting.
  Task      186 on host ravg1031 reporting.
  Task      187 on host ravg1031 reporting.
  Task      188 on host ravg1031 reporting.
  Task      189 on host ravg1031 reporting.
  Task      190 on host ravg1031 reporting.
  Task      191 on host ravg1031 reporting.
  Task      192 on host ravg1031 reporting.
  Task      193 on host ravg1031 reporting.
  Task      194 on host ravg1031 reporting.
  Task      195 on host ravg1031 reporting.
  Task      196 on host ravg1031 reporting.
  Task      197 on host ravg1031 reporting.
  Task      198 on host ravg1031 reporting.
  Task      199 on host ravg1031 reporting.
  Task      200 on host ravg1031 reporting.
  Task      201 on host ravg1031 reporting.
  Task      202 on host ravg1031 reporting.
  Task      203 on host ravg1031 reporting.
  Task      204 on host ravg1031 reporting.
  Task      205 on host ravg1031 reporting.
  Task      206 on host ravg1031 reporting.
  Task      207 on host ravg1031 reporting.
  Task      208 on host ravg1031 reporting.
  Task      209 on host ravg1031 reporting.
  Task      210 on host ravg1031 reporting.
  Task      211 on host ravg1031 reporting.
  Task      212 on host ravg1031 reporting.
  Task      213 on host ravg1031 reporting.
  Task      214 on host ravg1031 reporting.
  Task      215 on host ravg1031 reporting.

  Performing system and environment tests:
  | Environment variable OMP_NUM_THREADS correctly set to 1.
  | Checking for ScaLAPACK...
  | Testing pdtran()...
  | All pdtran() tests passed.

  Obtaining array dimensions for all initial allocations:
  
  -----------------------------------------------------------------------
  Parsing control.in (first pass over file, find array dimensions only).
  The contents of control.in will be repeated verbatim below
  unless switched off by setting 'verbatim_writeout .false.' .
  in the first line of control.in .
  -----------------------------------------------------------------------
  
  ##### Physical settings  ################
  xc                 pbe
  spin               none
  charge      0.0
  relativistic       atomic_zora scalar
  #elsi_restart read
  # SCF settings
  #use_symmetric_forces .true.
  #relax_geometry trm 1E-3
  
  #relax_unit_cell full
  
  
  
  #vdw_correction_hirshfeld
  harmonic_length_scale 0.09
  energy_tolerance  1E-3
  occupation_type gaussian       0.01
  # k-grid settings  (to be adjusted)
  k_grid  4 4 1
  #empty_states 8
  use_dipole_correction
  
  output dos_tetrahedron -10 0 1001 0.1
  output atom_proj_dos_tetrahedron -10 0 1001 0.1
  output species_proj_dos_tetrahedron -10 0 1001 0.1
  mixer   pulay
  n_max_pulay        12 # high for metal
  charge_mix_param   0.1 #low for metal
  many_body_dispersion_nl    beta=0.81
  #many_body_dispersion_nl    beta=0.81 do_rpa=.true. rpa_rescale_eigs=.true. parallel_mode=k_points
  ################################################################################
  #
  #  FHI-aims code project
  # Volker Blum, Fritz Haber Institute Berlin, 2009
  #
  #  Suggested "tight" defaults for S atom (to be pasted into control.in file)
  #
  #  Revised Jan 04, 2011, following tests (SiC) done by Lydia Nemec:
  #     d and g functions of tier 2 now enabled by default.
  #
  ################################################################################
    species        S_add
  #     global species definitions
      nucleus             16
      mass                32.065
  #
      l_hartree           6
  #
      cut_pot             5.0          2.0  1.0
      basis_dep_cutoff    1e-4
  #
      radial_base         44 7.0
      radial_multiplier   2
      angular_grids       specified
        division   0.4665  110
        division   0.5810  194
        division   0.7139  302
        division   0.8274  434
  #      division   0.9105  590
  #      division   1.0975  770
  #      division   1.2028  974
  #      outer_grid  974
        outer_grid  434
  ################################################################################
  #
  #  Definition of "minimal" basis
  #
  ################################################################################
  #     valence basis states
      valence      3  s   2.
      valence      3  p   4.
  #     ion occupancy
      ion_occ      3  s   1.
      ion_occ      3  p   3.
  ################################################################################
  #
  #  Suggested additional basis functions. For production calculations,
  #  uncomment them one after another (the most important basis functions are
  #  listed first).
  #
  #  Constructed for dimers: 1.6 A, 1.9 A, 2.5 A, 3.25 A, 4.0 A
  #
  ################################################################################
  #  "First tier" - improvements: -652.81 meV to -45.53 meV
       ionic 3 d auto
       hydro 2 p 1.8
       hydro 4 f 7
       ionic 3 s auto
  #  "Second tier" - improvements: -30.20 meV to -1.74 meV
       hydro 4 d 6.2
       hydro 5 g 10.8
  #     hydro 4 p 4.9
  #     hydro 5 f 10
  #     hydro 1 s 0.8
  #  "Third tier" - improvements: -1.04 meV to -0.20 meV
  #     hydro 3 d 3.9
  #     hydro 3 d 2.7
  #     hydro 5 g 12
  #     hydro 4 p 10.4
  #     hydro 5 f 12.4
  #     hydro 2 s 1.9
  #  "Fourth tier" - improvements: -0.35 meV to -0.06 meV
  #     hydro 4 d 10.4
  #     hydro 4 p 7.2
  #     hydro 4 d 10
  #     hydro 5 g 19.2
  #     hydro 4 s 12
  
  ################################################################################
  ################################################################################
  #
  #  FHI-aims code project
  # Volker Blum, Fritz Haber Institute Berlin, 2009
  #
  #  Suggested "tight" defaults for S atom (to be pasted into control.in file)
  #
  #  Revised Jan 04, 2011, following tests (SiC) done by Lydia Nemec:
  #     d and g functions of tier 2 now enabled by default.
  #
  ################################################################################
    species        S
  #     global species definitions
      nucleus             16
      mass                32.065
  #
      l_hartree           6
  #
      cut_pot             5.0          2.0  1.0
      basis_dep_cutoff    1e-4
  #
      radial_base         44 7.0
      radial_multiplier   2
      angular_grids       specified
        division   0.4665  110
        division   0.5810  194
        division   0.7139  302
        division   0.8274  434
  #      division   0.9105  590
  #      division   1.0975  770
  #      division   1.2028  974
  #      outer_grid  974
        outer_grid  434
  ################################################################################
  #
  #  Definition of "minimal" basis
  #
  ################################################################################
  #     valence basis states
      valence      3  s   2.
      valence      3  p   4.
  #     ion occupancy
      ion_occ      3  s   1.
      ion_occ      3  p   3.
  ################################################################################
  #
  #  Suggested additional basis functions. For production calculations,
  #  uncomment them one after another (the most important basis functions are
  #  listed first).
  #
  #  Constructed for dimers: 1.6 A, 1.9 A, 2.5 A, 3.25 A, 4.0 A
  #
  ################################################################################
  #  "First tier" - improvements: -652.81 meV to -45.53 meV
       ionic 3 d auto
       hydro 2 p 1.8
       hydro 4 f 7
       ionic 3 s auto
  #  "Second tier" - improvements: -30.20 meV to -1.74 meV
       hydro 4 d 6.2
       hydro 5 g 10.8
  #     hydro 4 p 4.9
  #     hydro 5 f 10
  #     hydro 1 s 0.8
  #  "Third tier" - improvements: -1.04 meV to -0.20 meV
  #     hydro 3 d 3.9
  #     hydro 3 d 2.7
  #     hydro 5 g 12
  #     hydro 4 p 10.4
  #     hydro 5 f 12.4
  #     hydro 2 s 1.9
  #  "Fourth tier" - improvements: -0.35 meV to -0.06 meV
  #     hydro 4 d 10.4
  #     hydro 4 p 7.2
  #     hydro 4 d 10
  #     hydro 5 g 19.2
  #     hydro 4 s 12
  
  ################################################################################
  #
  # For methods that use the localized form of the "resolution of identity" for
  # the two-electron Coulomb operator (RI_method LVL), particularly Hartree-Fock and
  # hybrid density functional calculations, the highest accuracy can be obtained by
  # uncommenting the line beginning with "for_aux"  below, thus adding an extra g radial
  # function to the construction of the product basis set for the expansion.
  # See Ref. New J. Phys. 17, 093020 (2015) for more information, particularly Figs. 1 and 6.
  #
  ################################################################################
  #
  # for_aux hydro 5 g 6.0
  ################################################################################
  #
  #  FHI-aims code project
  # Volker Blum, Fritz Haber Institute Berlin, 2009
  #
  #  Suggested "tight" defaults for Mo atom (to be pasted into control.in file)
  #
  ################################################################################
    species        Mo
  #     global species definitions
      nucleus             42
      mass                95.94
  #
      l_hartree           6
  #
      cut_pot             5.0  2.0  1.0
      basis_dep_cutoff    1e-4
  #
      radial_base         59 7.0
      radial_multiplier   2
      angular_grids specified
        division   0.3117   50
        division   0.6750  110
        division   1.0351  194
        division   1.2073  302
        division   1.6402  434
  #      division   1.9185  590
  #      division   2.0237  770
  #      division   2.0980  974
  #      division   2.7972 1202
  #      outer_grid  974
        outer_grid  434
  ################################################################################
  #
  #  Definition of "minimal" basis
  #
  ################################################################################
  #     valence basis states
      valence      5  s   1.
      valence      4  p   6.
      valence      4  d   5.
  #     ion occupancy
      ion_occ     5  s   0.
      ion_occ     4  p   6.
      ion_occ     4  d   4.
  ################################################################################
  #
  #  Suggested additional basis functions. For production calculations,
  #  uncomment them one after another (the most important basis functions are
  #  listed first).
  #
  #  Constructed for dimers: 1.675 A, 1.9 A, 2.375 A, 3.00 A, 4.00 A
  #
  ################################################################################
  #  "First tier"  - max. impr. -711.23  meV, min. impr. -21.07 meV
       hydro 4 f 8.4
       hydro 3 d 2.8
       ionic 5 p auto
       hydro 5 g 12
       ionic 5 s auto
  #  "Second tier" - max. impr. -39.38  meV, min. impr. -2.68 meV
  #     hydro 4 f 12.4
  #     hydro 3 d 3.3
  #     hydro 6 h 17.2
  #     hydro 4 f 7.6
  #     hydro 3 p 3.0
  #     hydro 1 s 0.65
  #  "Third tier"  - max. impr. -5.50 meV, min. impr. -0.47 meV
  #     hydro 4 f 29.2
  #     hydro 5 g 11.2
  #     hydro 3 d 6.8
  #     hydro 6 h 14.8
  #     hydro 2 p 2.3
  #     hydro 4 s 3.8
  #  "Fourth tier"  - max. impr. -0.58 meV, min. impr. -0.19 meV
  #     hydro 5 f 6.8
  #     hydro 5 d 14.8
  #     hydro 6 s 7.8
  #     hydro 5 g 20.8
  #     hydro 5 d 10.4
  #     hydro 5 p 9.8
  #  Further functions - -0.17 meV and below
  #     hydro 5 d 3.2
  ################################################################################
  #
  #  FHI-aims code project
  #  Volker Blum, 2018
  #
  #  Suggested "intermediate" defaults for Se atom (to be pasted into control.in file)
  #
  #  2020/09/15 These "intermediate" settings are identical to past "tight" defaults
  #             and differ only in the "g" function that is now included in "tight".
  #
  ################################################################################
    species        Se
  #     global species definitions
      nucleus             34
      mass                78.96
  #
      l_hartree           6
  #
      cut_pot             4.0          2.0  1.0
      basis_dep_cutoff    1e-4
  #
      radial_base         55 7.0
      radial_multiplier   2
      angular_grids       specified
        division   0.0830  110
        division   0.1357  194
        division   0.7377  302
        division   0.8610  434
  #      division   0.9640  590
  #      division   1.0773  770
  #      division   2.5539  974
  #      outer_grid  974
        outer_grid  434
  ################################################################################
  #
  #  Definition of "minimal" basis
  #
  ################################################################################
  #     valence basis states
      valence      4  s   2.
      valence      4  p   4.
      valence      3  d  10.
  #     ion occupancy
      ion_occ      4  s   1.
      ion_occ      4  p   3.
      ion_occ      3  d  10.
  ################################################################################
  #
  #  Suggested additional basis functions. For production calculations,
  #  uncomment them one after another (the most important basis functions are
  #  listed first).
  #
  #  Constructed for dimers: 1.85 A, 2.15 A, 2.50 A, 3.00 A, 4.00 A
  #
  ################################################################################
  #  "First tier" - improvements: -336.21 meV to -36.85 meV
       hydro 3 d 4.3
       hydro 2 p 1.6
       hydro 4 f 7.2
       ionic 4 s auto
  #  "Second tier" - improvements: -14.39 meV to -1.49 meV
  #     hydro 5 g 10.4
  #     hydro 4 p 4.5
  #     hydro 4 d 6.2
  #     hydro 4 f 11.2
  #     hydro 1 s 0.65
  #     hydro 6 h 15.2
  #  "Third tier" - improvements: -0.46 meV and below
  #     hydro 5 g 14.4
  #     ionic 4 d auto
  #     hydro 4 f 22.4
  #     hydro 5 f 7.4
  #     hydro 5 p 8
  #     hydro 5 s 9.4
  #  "Fourth tier" - improvements: -0.12 meV and below
  #     hydro 5 d 11.6
  #     hydro 6 h 18
  #     hydro 4 p 4
  #     hydro 5 f 16
  #     hydro 4 s 3.9
  
  
  
  -----------------------------------------------------------------------
  Completed first pass over input file control.in .
  -----------------------------------------------------------------------
  
  
  -----------------------------------------------------------------------
  Parsing geometry.in (first pass over file, find array dimensions only).
  The contents of geometry.in will be repeated verbatim below
  unless switched off by setting 'verbatim_writeout .false.' .
  in the first line of geometry.in .
  -----------------------------------------------------------------------
  
  #
  # This is the geometry file that corresponds to the current relaxation step.
  # If you do not want this file to be written, set the "write_restart_geometry" flag to .false.
  #  aims_uuid : 5592D043-E88E-4ED6-A610-F311E7602E05
  #
    set_vacuum_level        52.613254
  lattice_vector     16.41708800      0.00000000      0.00000000
  lattice_vector     -8.21125790     14.21583190      0.00000000
  lattice_vector      0.00000000      0.00000000     99.89650741
  atom       0.04106247      1.01842098      2.66500000 Mo
  atom       1.68564404      1.97119478      4.33759200 Se
  atom       1.68564404      1.97119478      0.99240800 Se
  atom      -1.58247367      3.87859735      2.66500000 Mo
  atom       0.06418950      4.82927188      4.34644253 Se
  atom       0.06418950      4.82927188      0.98355747 Se
  atom      -3.24879882      6.71390954      2.66500000 Mo
  atom      -1.60149114      7.66171533      4.33764500 Se
  atom      -1.60149114      7.66171533      0.99235500 Se
  atom      -4.87668530      9.55892876      2.66500000 Mo
  atom      -3.23623373     10.50757204      4.34400968 Se
  atom      -3.23623373     10.50757204      0.98599032 Se
  atom      -6.51914783     12.40252345      2.66500000 Mo
  atom      -4.87727922     13.34883857      4.34398839 Se
  atom      -4.87727922     13.34883857      0.98601161 Se
  atom       3.33363096      1.02537820      2.66500000 Mo
  atom       4.98139561      1.97105326      4.33762893 Se
  atom       4.98139561      1.97105326      0.99237107 Se
  atom       1.70951556      3.88027690      2.66500000 Mo
  atom       3.33316105      4.81763194      4.33751159 Se
  atom       3.33316105      4.81763194      0.99248841 Se
  atom       0.06406005      6.72842122      2.66500000 Mo
  atom       1.68784815      7.66533205      4.33745111 Se
  atom       1.68784815      7.66533205      0.99254889 Se
  atom      -1.59714806      9.56147038      2.66500000 Mo
  atom       0.04578139     10.51541645      4.33766255 Se
  atom       0.04578139     10.51541645      0.99233745 Se
  atom      -3.23523916     12.40254743      2.66500000 Mo
  atom      -1.59707582     13.34824134      4.35008759 Se
  atom      -1.59707582     13.34824134      0.97991241 Se
  atom       6.62610594      1.01839996      2.66500000 Mo
  atom       8.25958852      1.97935467      4.34394290 Se
  atom       8.25958852      1.97935467      0.98605710 Se
  atom       4.95677411      3.88001622      2.66500000 Mo
  atom       6.60166604      4.82901219      4.34648860 Se
  atom       6.60166604      4.82901219      0.98351140 Se
  atom       4.97676350      7.66497164      4.33751252 Se
  atom       4.97676350      7.66497164      0.99248748 Se
  atom       1.68705304      9.54004456      2.66500000 Mo
  atom       3.33162971     10.48976029      4.34647864 Se
  atom       3.33162971     10.48976029      0.98352136 Se
  atom       0.04253810     12.41590568      2.66500000 Mo
  atom       1.69169422     13.34987602      4.34390403 Se
  atom       1.69169422     13.34987602      0.98609597 Se
  atom       9.90402946      1.03186024      2.66500000 Mo
  atom      11.54196772      1.97739996      4.34690848 Se
  atom      11.54196772      1.97739996      0.98309152 Se
  atom       8.24844025      3.87847379      2.66500000 Mo
  atom       9.89854413      4.81868267      4.34393222 Se
  atom       9.89854413      4.81868267      0.98606778 Se
  atom       6.60073874      6.72804958      2.66500000 Mo
  atom       8.26612088      7.66148339      4.33764965 Se
  atom       8.26612088      7.66148339      0.99235035 Se
  atom       4.97629749      9.53976961      2.66500000 Mo
  atom       6.61756076     10.51521648      4.33759405 Se
  atom       6.61756076     10.51521648      0.99240595 Se
  atom       3.33125697     12.39111578      2.66500000 Mo
  atom       4.97068507     13.34986792      4.34390687 Se
  atom       4.97068507     13.34986792      0.98609313 Se
  atom      13.18001975      1.03186328      2.66500000 Mo
  atom      14.82440335      1.97943646      4.34390977 Se
  atom      14.82440335      1.97943646      0.98609023 Se
  atom      11.54150409      3.86862895      2.66500000 Mo
  atom      13.18433746      4.81879985      4.34391597 Se
  atom      13.18433746      4.81879985      0.98608403 Se
  atom       9.91363526      6.71376499      2.66500000 Mo
  atom      11.54085940      7.66743057      4.35007696 Se
  atom      11.54085940      7.66743057      0.97992304 Se
  atom       8.26081232      9.56126295      2.66500000 Mo
  atom       9.89969844     10.50749548      4.34398556 Se
  atom       9.89969844     10.50749548      0.98601444 Se
  atom       6.62000621     12.41585542      2.66500000 Mo
  atom       8.25954699     13.34821309      4.35010044 Se
  atom       8.25954699     13.34821309      0.97989956 Se
  #
  # What follows is the current estimated Hessian matrix constructed by the BFGS algorithm.
  # This is NOT the true Hessian matrix of the system.
  # If you do not want this information here, switch it off using the "hessian_to_restart_geometry" keyword.
  #
  trust_radius             0.0003714505
  hessian_file
  
  -----------------------------------------------------------------------
  Completed first pass over input file geometry.in .
  -----------------------------------------------------------------------
  

  Basic array size parameters:
  | Number of species                 :        4
  | Number of atoms                   :       74
  | Number of lattice vectors         :        3
  | Max. basis fn. angular momentum   :        4
  | Max. atomic/ionic basis occupied n:        5
  | Max. number of basis fn. types    :        3
  | Max. radial fns per species/type  :       10
  | Max. logarithmic grid size        :     1436
  | Max. radial integration grid size :      119
  | Max. angular integration grid size:      434
  | Max. angular grid division number :        8
  | Radial grid for Hartree potential :     1436
  | Number of spin channels           :        1

------------------------------------------------------------
          Reading file control.in.
------------------------------------------------------------
  XC: Using PBE gradient-corrected functionals.
  Spin treatment: No spin polarisation.
  Charge =   0.000000E+00: Neutral system requested explicitly.
  Scalar relativistic treatment of kinetic energy: on-site free-atom approximation to ZORA.
  Assuming qualitatively harmonic for steps shorter than   0.900000E-01 A.
  Max energy increase before discarding BFGS move:   0.100000E-02 eV
  Occupation type: Gaussian broadening, width =   0.100000E-01 eV.
  Found k-point grid:         4         4         1
  Using dipole correction.
  Calculating density of states with
  | energy interval :-10.000000  0.000000
  | points & tetrahedron method :  1001
  Calculating atom-projected density of states with
  | energy interval :-10.000000  0.000000
  | points & tetrahedron :  1001
  Calculating angular-momentum projected DOS with 
  | energy interval :-10.000000  0.000000
  | points & tetrahedron :  1001
  Using pulay charge density mixing.
  Pulay mixing - number of memorized iterations:   12
  Charge density mixing - mixing parameter:     0.1000
  Using libMBD for calculating MBD and TS energies
 
  Reading configuration options for species S_add               .
  | Found nuclear charge :  16.0000
  | Found atomic mass :    32.0650000000000      amu
  | Found l_max for Hartree potential  :   6
  | Found cutoff potl. onset [A], width [A], scale factor :    5.00000    2.00000    1.00000
  | Threshold for basis-dependent cutoff potential is   0.100000E-03
  | Found data for basic radial integration grid :    44 points, outermost radius =    7.000 A
  | Found multiplier for basic radial grid :   2
  | Found angular grid specification: user-specified.
  | Specified grid contains     5 separate shells.
  | Check grid settings after all constraints further below.
  | Found free-atom valence shell :  3 s   2.000
  | Found free-atom valence shell :  3 p   4.000
  | Found free-ion valence shell :  3 s   1.000
  | Found free-ion valence shell :  3 p   3.000
  | Found ionic basis function :  3 d , default cutoff radius.
  | Found hydrogenic basis function :  2 p   1.800
  | Found hydrogenic basis function :  4 f   7.000
  | Found ionic basis function :  3 s , default cutoff radius.
  | Found hydrogenic basis function :  4 d   6.200
  | Found hydrogenic basis function :  5 g  10.800
  Species S_add               : Missing cutoff potential type.
  Defaulting to exp(1/x)/(1-x)^2 type cutoff potential.
  Species S_: No 'logarithmic' tag. Using default grid for free atom:
  | Default logarithmic grid data [bohr] : 0.1000E-03 0.1000E+03 0.1012E+01
  | Will include ionic basis functions of  2.0-fold positive S_add                ion.
  Species S_: On-site basis accuracy parameter (for Gram-Schmidt orthonormalisation) not specified.
  Using default value basis_acc =  0.1000000E-03.
  Species S_add               : Using default innermost maximum threshold i_radial=  2 for radial functions.
  Species S_add               : Default cutoff onset for free atom density etc. : 0.50000000E+01 AA.
  Species S_add               : Basic radial grid will be enhanced according to radial_multiplier =   2, to contain    89 grid points.
 
  Reading configuration options for species S                   .
  | Found nuclear charge :  16.0000
  | Found atomic mass :    32.0650000000000      amu
  | Found l_max for Hartree potential  :   6
  | Found cutoff potl. onset [A], width [A], scale factor :    5.00000    2.00000    1.00000
  | Threshold for basis-dependent cutoff potential is   0.100000E-03
  | Found data for basic radial integration grid :    44 points, outermost radius =    7.000 A
  | Found multiplier for basic radial grid :   2
  | Found angular grid specification: user-specified.
  | Specified grid contains     5 separate shells.
  | Check grid settings after all constraints further below.
  | Found free-atom valence shell :  3 s   2.000
  | Found free-atom valence shell :  3 p   4.000
  | Found free-ion valence shell :  3 s   1.000
  | Found free-ion valence shell :  3 p   3.000
  | Found ionic basis function :  3 d , default cutoff radius.
  | Found hydrogenic basis function :  2 p   1.800
  | Found hydrogenic basis function :  4 f   7.000
  | Found ionic basis function :  3 s , default cutoff radius.
  | Found hydrogenic basis function :  4 d   6.200
  | Found hydrogenic basis function :  5 g  10.800
  Species S                   : Missing cutoff potential type.
  Defaulting to exp(1/x)/(1-x)^2 type cutoff potential.
  Species S : No 'logarithmic' tag. Using default grid for free atom:
  | Default logarithmic grid data [bohr] : 0.1000E-03 0.1000E+03 0.1012E+01
  | Will include ionic basis functions of  2.0-fold positive S                    ion.
  Species S : On-site basis accuracy parameter (for Gram-Schmidt orthonormalisation) not specified.
  Using default value basis_acc =  0.1000000E-03.
  Species S                   : Using default innermost maximum threshold i_radial=  2 for radial functions.
  Species S                   : Default cutoff onset for free atom density etc. : 0.50000000E+01 AA.
  Species S                   : Basic radial grid will be enhanced according to radial_multiplier =   2, to contain    89 grid points.
 
  Reading configuration options for species Mo                  .
  | Found nuclear charge :  42.0000
  | Found atomic mass :    95.9400000000000      amu
  | Found l_max for Hartree potential  :   6
  | Found cutoff potl. onset [A], width [A], scale factor :    5.00000    2.00000    1.00000
  | Threshold for basis-dependent cutoff potential is   0.100000E-03
  | Found data for basic radial integration grid :    59 points, outermost radius =    7.000 A
  | Found multiplier for basic radial grid :   2
  | Found angular grid specification: user-specified.
  | Specified grid contains     6 separate shells.
  | Check grid settings after all constraints further below.
  | Found free-atom valence shell :  5 s   1.000
  | Found free-atom valence shell :  4 p   6.000
  | Found free-atom valence shell :  4 d   5.000
  | Found free-ion valence shell :  5 s   0.000
  | Found free-ion valence shell :  4 p   6.000
  | Found free-ion valence shell :  4 d   4.000
  | Found hydrogenic basis function :  4 f   8.400
  | Found hydrogenic basis function :  3 d   2.800
  | Found ionic basis function :  5 p , default cutoff radius.
  | Found hydrogenic basis function :  5 g  12.000
  | Found ionic basis function :  5 s , default cutoff radius.
  Species Mo                  : Missing cutoff potential type.
  Defaulting to exp(1/x)/(1-x)^2 type cutoff potential.
  Species Mo: No 'logarithmic' tag. Using default grid for free atom:
  | Default logarithmic grid data [bohr] : 0.1000E-03 0.1000E+03 0.1012E+01
  | Will include ionic basis functions of  2.0-fold positive Mo                   ion.
  Species Mo: On-site basis accuracy parameter (for Gram-Schmidt orthonormalisation) not specified.
  Using default value basis_acc =  0.1000000E-03.
  Species Mo                  : Using default innermost maximum threshold i_radial=  2 for radial functions.
  Species Mo                  : Default cutoff onset for free atom density etc. : 0.50000000E+01 AA.
  Species Mo                  : Basic radial grid will be enhanced according to radial_multiplier =   2, to contain   119 grid points.
 
  Reading configuration options for species Se                  .
  | Found nuclear charge :  34.0000
  | Found atomic mass :    78.9600000000000      amu
  | Found l_max for Hartree potential  :   6
  | Found cutoff potl. onset [A], width [A], scale factor :    4.00000    2.00000    1.00000
  | Threshold for basis-dependent cutoff potential is   0.100000E-03
  | Found data for basic radial integration grid :    55 points, outermost radius =    7.000 A
  | Found multiplier for basic radial grid :   2
  | Found angular grid specification: user-specified.
  | Specified grid contains     5 separate shells.
  | Check grid settings after all constraints further below.
  | Found free-atom valence shell :  4 s   2.000
  | Found free-atom valence shell :  4 p   4.000
  | Found free-atom valence shell :  3 d  10.000
  | Found free-ion valence shell :  4 s   1.000
  | Found free-ion valence shell :  4 p   3.000
  | Found free-ion valence shell :  3 d  10.000
  | Found hydrogenic basis function :  3 d   4.300
  | Found hydrogenic basis function :  2 p   1.600
  | Found hydrogenic basis function :  4 f   7.200
  | Found ionic basis function :  4 s , default cutoff radius.
  Species Se                  : Missing cutoff potential type.
  Defaulting to exp(1/x)/(1-x)^2 type cutoff potential.
  Species Se: No 'logarithmic' tag. Using default grid for free atom:
  | Default logarithmic grid data [bohr] : 0.1000E-03 0.1000E+03 0.1012E+01
  | Will include ionic basis functions of  2.0-fold positive Se                   ion.
  Species Se: On-site basis accuracy parameter (for Gram-Schmidt orthonormalisation) not specified.
  Using default value basis_acc =  0.1000000E-03.
  Species Se                  : Using default innermost maximum threshold i_radial=  2 for radial functions.
  Species Se                  : Default cutoff onset for free atom density etc. : 0.40000000E+01 AA.
  Species Se                  : Basic radial grid will be enhanced according to radial_multiplier =   2, to contain   111 grid points.
 
  Finished reading input file 'control.in'.
 
------------------------------------------------------------


------------------------------------------------------------
          Reading geometry description geometry.in.
------------------------------------------------------------
  Vacuum level in z-axis :   0.526133E+02
  Found keyword 'hessian_file', indicating that this is the continuation of a structure optimization.
  However, the control.in file does not request the geometry to be optimized.
  Ignoring the request for a file 'hessian.aims' to be present.
  | The smallest distance between any two atoms is         2.51228629 AA.
  | The first atom of this pair is atom number                     23 .
  | The second atom of this pair is atom number                    22 .
  | Wigner-Seitz cell of the first atom image           0     1     0 .
  | (The Wigner-Seitz cell of the second atom is 0 0 0  by definition.)

  Symmetry information by spglib:
  | Precision set to  0.1E-04
  | Number of Operations  : 2
  | Space group           : 6
  | International         : Pm       Z
  | Schoenflies           : Cs^1
  Input structure read successfully.
  The structure contains       74 atoms,  and a total of       2708.000 electrons.

  Input geometry:
  | Unit cell:
  |       16.41708800        0.00000000        0.00000000
  |       -8.21125790       14.21583190        0.00000000
  |        0.00000000        0.00000000       99.89650741
  | Atomic structure:
  |       Atom                x [A]            y [A]            z [A]
  |    1: Species Mo            0.04106247        1.01842098        2.66500000
  |    2: Species Se            1.68564404        1.97119478        4.33759200
  |    3: Species Se            1.68564404        1.97119478        0.99240800
  |    4: Species Mo           -1.58247367        3.87859735        2.66500000
  |    5: Species Se            0.06418950        4.82927188        4.34644253
  |    6: Species Se            0.06418950        4.82927188        0.98355747
  |    7: Species Mo           -3.24879882        6.71390954        2.66500000
  |    8: Species Se           -1.60149114        7.66171533        4.33764500
  |    9: Species Se           -1.60149114        7.66171533        0.99235500
  |   10: Species Mo           -4.87668530        9.55892876        2.66500000
  |   11: Species Se           -3.23623373       10.50757204        4.34400968
  |   12: Species Se           -3.23623373       10.50757204        0.98599032
  |   13: Species Mo           -6.51914783       12.40252345        2.66500000
  |   14: Species Se           -4.87727922       13.34883857        4.34398839
  |   15: Species Se           -4.87727922       13.34883857        0.98601161
  |   16: Species Mo            3.33363096        1.02537820        2.66500000
  |   17: Species Se            4.98139561        1.97105326        4.33762893
  |   18: Species Se            4.98139561        1.97105326        0.99237107
  |   19: Species Mo            1.70951556        3.88027690        2.66500000
  |   20: Species Se            3.33316105        4.81763194        4.33751159
  |   21: Species Se            3.33316105        4.81763194        0.99248841
  |   22: Species Mo            0.06406005        6.72842122        2.66500000
  |   23: Species Se            1.68784815        7.66533205        4.33745111
  |   24: Species Se            1.68784815        7.66533205        0.99254889
  |   25: Species Mo           -1.59714806        9.56147038        2.66500000
  |   26: Species Se            0.04578139       10.51541645        4.33766255
  |   27: Species Se            0.04578139       10.51541645        0.99233745
  |   28: Species Mo           -3.23523916       12.40254743        2.66500000
  |   29: Species Se           -1.59707582       13.34824134        4.35008759
  |   30: Species Se           -1.59707582       13.34824134        0.97991241
  |   31: Species Mo            6.62610594        1.01839996        2.66500000
  |   32: Species Se            8.25958852        1.97935467        4.34394290
  |   33: Species Se            8.25958852        1.97935467        0.98605710
  |   34: Species Mo            4.95677411        3.88001622        2.66500000
  |   35: Species Se            6.60166604        4.82901219        4.34648860
  |   36: Species Se            6.60166604        4.82901219        0.98351140
  |   37: Species Se            4.97676350        7.66497164        4.33751252
  |   38: Species Se            4.97676350        7.66497164        0.99248748
  |   39: Species Mo            1.68705304        9.54004456        2.66500000
  |   40: Species Se            3.33162971       10.48976029        4.34647864
  |   41: Species Se            3.33162971       10.48976029        0.98352136
  |   42: Species Mo            0.04253810       12.41590568        2.66500000
  |   43: Species Se            1.69169422       13.34987602        4.34390403
  |   44: Species Se            1.69169422       13.34987602        0.98609597
  |   45: Species Mo            9.90402946        1.03186024        2.66500000
  |   46: Species Se           11.54196772        1.97739996        4.34690848
  |   47: Species Se           11.54196772        1.97739996        0.98309152
  |   48: Species Mo            8.24844025        3.87847379        2.66500000
  |   49: Species Se            9.89854413        4.81868267        4.34393222
  |   50: Species Se            9.89854413        4.81868267        0.98606778
  |   51: Species Mo            6.60073874        6.72804958        2.66500000
  |   52: Species Se            8.26612088        7.66148339        4.33764965
  |   53: Species Se            8.26612088        7.66148339        0.99235035
  |   54: Species Mo            4.97629749        9.53976961        2.66500000
  |   55: Species Se            6.61756076       10.51521648        4.33759405
  |   56: Species Se            6.61756076       10.51521648        0.99240595
  |   57: Species Mo            3.33125697       12.39111578        2.66500000
  |   58: Species Se            4.97068507       13.34986792        4.34390687
  |   59: Species Se            4.97068507       13.34986792        0.98609313
  |   60: Species Mo           13.18001975        1.03186328        2.66500000
  |   61: Species Se           14.82440335        1.97943646        4.34390977
  |   62: Species Se           14.82440335        1.97943646        0.98609023
  |   63: Species Mo           11.54150409        3.86862895        2.66500000
  |   64: Species Se           13.18433746        4.81879985        4.34391597
  |   65: Species Se           13.18433746        4.81879985        0.98608403
  |   66: Species Mo            9.91363526        6.71376499        2.66500000
  |   67: Species Se           11.54085940        7.66743057        4.35007696
  |   68: Species Se           11.54085940        7.66743057        0.97992304
  |   69: Species Mo            8.26081232        9.56126295        2.66500000
  |   70: Species Se            9.89969844       10.50749548        4.34398556
  |   71: Species Se            9.89969844       10.50749548        0.98601444
  |   72: Species Mo            6.62000621       12.41585542        2.66500000
  |   73: Species Se            8.25954699       13.34821309        4.35010044
  |   74: Species Se            8.25954699       13.34821309        0.97989956

  Lattice parameters for 3D lattice (in Angstroms) :    16.417088   16.416901   99.896507
  Angle(s) between unit vectors (in degrees)       :    90.000000   90.000000  120.011315


  Quantities derived from the lattice vectors:
  | Reciprocal lattice vector 1:  0.382722  0.221066  0.000000
  | Reciprocal lattice vector 2:  0.000000  0.441985  0.000000
  | Reciprocal lattice vector 3:  0.000000  0.000000  0.062897
  | Unit cell volume                               :   0.233141E+05  A^3

  Fractional coordinates:
                         L1                L2                L3
       atom_frac         0.03833300        0.07163991        0.02667761  Mo
       atom_frac         0.17203008        0.13866194        0.04342086  Se
       atom_frac         0.17203008        0.13866194        0.00993436  Se
       atom_frac         0.04007147        0.27283647        0.02667761  Mo
       atom_frac         0.17382149        0.33971082        0.04350945  Se
       atom_frac         0.17382149        0.33971082        0.00984576  Se
       atom_frac         0.03832876        0.47228397        0.02667761  Mo
       atom_frac         0.17201710        0.53895652        0.04342139  Se
       atom_frac         0.17201710        0.53895652        0.00993383  Se
       atom_frac         0.03926896        0.67241431        0.02667761  Mo
       atom_frac         0.17256914        0.73914577        0.04348510  Se
       atom_frac         0.17256914        0.73914577        0.00987012  Se
       atom_frac         0.03927118        0.87244444        0.02667761  Mo
       atom_frac         0.17257577        0.93901213        0.04348489  Se
       atom_frac         0.17257577        0.93901213        0.00987033  Se
       atom_frac         0.23913518        0.07212931        0.02667761  Mo
       atom_frac         0.37277639        0.13865198        0.04342123  Se
       atom_frac         0.37277639        0.13865198        0.00993399  Se
       atom_frac         0.24065268        0.27295461        0.02667761  Mo
       atom_frac         0.37253201        0.33889202        0.04342005  Se
       atom_frac         0.37253201        0.33889202        0.00993517  Se
       atom_frac         0.24063267        0.47330478        0.02667761  Mo
       atom_frac         0.37250505        0.53921094        0.04341945  Se
       atom_frac         0.37250505        0.53921094        0.00993577  Se
       atom_frac         0.23912202        0.67259310        0.02667761  Mo
       atom_frac         0.37275971        0.73969758        0.04342156  Se
       atom_frac         0.37275971        0.73969758        0.00993366  Se
       atom_frac         0.23930194        0.87244612        0.02667761  Mo
       atom_frac         0.37235897        0.93897012        0.04354594  Se
       atom_frac         0.37235897        0.93897012        0.00980928  Se
       atom_frac         0.43944137        0.07163844        0.02667761  Mo
       atom_frac         0.57275022        0.13923594        0.04348443  Se
       atom_frac         0.57275022        0.13923594        0.00987079  Se
       atom_frac         0.43844099        0.27293628        0.02667761  Mo
       atom_frac         0.57202405        0.33969255        0.04350992  Se
       atom_frac         0.57202405        0.33969255        0.00984530  Se
       atom_frac         0.57282725        0.53918559        0.04342006  Se
       atom_frac         0.57282725        0.53918559        0.00993516  Se
       atom_frac         0.43841591        0.67108592        0.02667761  Mo
       atom_frac         0.57200509        0.73789282        0.04350982  Se
       atom_frac         0.57200509        0.73789282        0.00984540  Se
       atom_frac         0.43942836        0.87338580        0.02667761  Mo
       atom_frac         0.57274251        0.93908511        0.04348404  Se
       atom_frac         0.57274251        0.93908511        0.00987118  Se
       atom_frac         0.63958029        0.07258529        0.02667761  Mo
       atom_frac         0.77261819        0.13909843        0.04351412  Se
       atom_frac         0.77261819        0.13909843        0.00984110  Se
       atom_frac         0.63888915        0.27282778        0.02667761  Mo
       atom_frac         0.77248053        0.33896593        0.04348433  Se
       atom_frac         0.77248053        0.33896593        0.00987089  Se
       atom_frac         0.63878269        0.47327864        0.02667761  Mo
       atom_frac         0.77306633        0.53894021        0.04342143  Se
       atom_frac         0.77306633        0.53894021        0.00993378  Se
       atom_frac         0.63876116        0.67106657        0.02667761  Mo
       atom_frac         0.77305384        0.73968351        0.04342088  Se
       atom_frac         0.77305384        0.73968351        0.00993434  Se
       atom_frac         0.63887908        0.87164197        0.02667761  Mo
       atom_frac         0.77247258        0.93908454        0.04348407  Se
       atom_frac         0.77247258        0.93908454        0.00987115  Se
       atom_frac         0.83912799        0.07258550        0.02667761  Mo
       atom_frac         0.97263003        0.13924169        0.04348410  Se
       atom_frac         0.97263003        0.13924169        0.00987112  Se
       atom_frac         0.83913035        0.27213525        0.02667761  Mo
       atom_frac         0.97262936        0.33897417        0.04348416  Se
       atom_frac         0.97262936        0.33897417        0.00987106  Se
       atom_frac         0.84007573        0.47227380        0.02667761  Mo
       atom_frac         0.97274691        0.53935856        0.04354584  Se
       atom_frac         0.97274691        0.53935856        0.00980938  Se
       atom_frac         0.83958421        0.67257850        0.02667761  Mo
       atom_frac         0.97270422        0.73914039        0.04348486  Se
       atom_frac         0.97270422        0.73914039        0.00987036  Se
       atom_frac         0.84007427        0.87338226        0.02667761  Mo
       atom_frac         0.97274599        0.93896813        0.04354607  Se
       atom_frac         0.97274599        0.93896813        0.00980915  Se

 
  Finished reading input file 'control.in'.
 

------------------------------------------------------------
          Reading geometry description geometry.in.
------------------------------------------------------------
 
  Consistency checks for stacksize environment parameter are next.
 
  | Maximum stacksize for task 0: unlimited
  | Maximum stacksize for task 1: unlimited
  | Maximum stacksize for task 2: unlimited
  | Maximum stacksize for task 3: unlimited
  | Maximum stacksize for task 4: unlimited
  | Maximum stacksize for task 5: unlimited
  | Maximum stacksize for task 6: unlimited
  | Maximum stacksize for task 7: unlimited
  | Maximum stacksize for task 8: unlimited
  | Maximum stacksize for task 9: unlimited
  | Maximum stacksize for task 10: unlimited
  | Maximum stacksize for task 11: unlimited
  | Maximum stacksize for task 12: unlimited
  | Maximum stacksize for task 13: unlimited
  | Maximum stacksize for task 14: unlimited
  | Maximum stacksize for task 15: unlimited
  | Maximum stacksize for task 16: unlimited
  | Maximum stacksize for task 17: unlimited
  | Maximum stacksize for task 18: unlimited
  | Maximum stacksize for task 19: unlimited
  | Maximum stacksize for task 20: unlimited
  | Maximum stacksize for task 21: unlimited
  | Maximum stacksize for task 22: unlimited
  | Maximum stacksize for task 23: unlimited
  | Maximum stacksize for task 24: unlimited
  | Maximum stacksize for task 25: unlimited
  | Maximum stacksize for task 26: unlimited
  | Maximum stacksize for task 27: unlimited
  | Maximum stacksize for task 28: unlimited
  | Maximum stacksize for task 29: unlimited
  | Maximum stacksize for task 30: unlimited
  | Maximum stacksize for task 31: unlimited
  | Maximum stacksize for task 32: unlimited
  | Maximum stacksize for task 33: unlimited
  | Maximum stacksize for task 34: unlimited
  | Maximum stacksize for task 35: unlimited
  | Maximum stacksize for task 36: unlimited
  | Maximum stacksize for task 37: unlimited
  | Maximum stacksize for task 38: unlimited
  | Maximum stacksize for task 39: unlimited
  | Maximum stacksize for task 40: unlimited
  | Maximum stacksize for task 41: unlimited
  | Maximum stacksize for task 42: unlimited
  | Maximum stacksize for task 43: unlimited
  | Maximum stacksize for task 44: unlimited
  | Maximum stacksize for task 45: unlimited
  | Maximum stacksize for task 46: unlimited
  | Maximum stacksize for task 47: unlimited
  | Maximum stacksize for task 48: unlimited
  | Maximum stacksize for task 49: unlimited
  | Maximum stacksize for task 50: unlimited
  | Maximum stacksize for task 51: unlimited
  | Maximum stacksize for task 52: unlimited
  | Maximum stacksize for task 53: unlimited
  | Maximum stacksize for task 54: unlimited
  | Maximum stacksize for task 55: unlimited
  | Maximum stacksize for task 56: unlimited
  | Maximum stacksize for task 57: unlimited
  | Maximum stacksize for task 58: unlimited
  | Maximum stacksize for task 59: unlimited
  | Maximum stacksize for task 60: unlimited
  | Maximum stacksize for task 61: unlimited
  | Maximum stacksize for task 62: unlimited
  | Maximum stacksize for task 63: unlimited
  | Maximum stacksize for task 64: unlimited
  | Maximum stacksize for task 65: unlimited
  | Maximum stacksize for task 66: unlimited
  | Maximum stacksize for task 67: unlimited
  | Maximum stacksize for task 68: unlimited
  | Maximum stacksize for task 69: unlimited
  | Maximum stacksize for task 70: unlimited
  | Maximum stacksize for task 71: unlimited
  | Maximum stacksize for task 72: unlimited
  | Maximum stacksize for task 73: unlimited
  | Maximum stacksize for task 74: unlimited
  | Maximum stacksize for task 75: unlimited
  | Maximum stacksize for task 76: unlimited
  | Maximum stacksize for task 77: unlimited
  | Maximum stacksize for task 78: unlimited
  | Maximum stacksize for task 79: unlimited
  | Maximum stacksize for task 80: unlimited
  | Maximum stacksize for task 81: unlimited
  | Maximum stacksize for task 82: unlimited
  | Maximum stacksize for task 83: unlimited
  | Maximum stacksize for task 84: unlimited
  | Maximum stacksize for task 85: unlimited
  | Maximum stacksize for task 86: unlimited
  | Maximum stacksize for task 87: unlimited
  | Maximum stacksize for task 88: unlimited
  | Maximum stacksize for task 89: unlimited
  | Maximum stacksize for task 90: unlimited
  | Maximum stacksize for task 91: unlimited
  | Maximum stacksize for task 92: unlimited
  | Maximum stacksize for task 93: unlimited
  | Maximum stacksize for task 94: unlimited
  | Maximum stacksize for task 95: unlimited
  | Maximum stacksize for task 96: unlimited
  | Maximum stacksize for task 97: unlimited
  | Maximum stacksize for task 98: unlimited
  | Maximum stacksize for task 99: unlimited
  | Maximum stacksize for task 100: unlimited
  | Maximum stacksize for task 101: unlimited
  | Maximum stacksize for task 102: unlimited
  | Maximum stacksize for task 103: unlimited
  | Maximum stacksize for task 104: unlimited
  | Maximum stacksize for task 105: unlimited
  | Maximum stacksize for task 106: unlimited
  | Maximum stacksize for task 107: unlimited
  | Maximum stacksize for task 108: unlimited
  | Maximum stacksize for task 109: unlimited
  | Maximum stacksize for task 110: unlimited
  | Maximum stacksize for task 111: unlimited
  | Maximum stacksize for task 112: unlimited
  | Maximum stacksize for task 113: unlimited
  | Maximum stacksize for task 114: unlimited
  | Maximum stacksize for task 115: unlimited
  | Maximum stacksize for task 116: unlimited
  | Maximum stacksize for task 117: unlimited
  | Maximum stacksize for task 118: unlimited
  | Maximum stacksize for task 119: unlimited
  | Maximum stacksize for task 120: unlimited
  | Maximum stacksize for task 121: unlimited
  | Maximum stacksize for task 122: unlimited
  | Maximum stacksize for task 123: unlimited
  | Maximum stacksize for task 124: unlimited
  | Maximum stacksize for task 125: unlimited
  | Maximum stacksize for task 126: unlimited
  | Maximum stacksize for task 127: unlimited
  | Maximum stacksize for task 128: unlimited
  | Maximum stacksize for task 129: unlimited
  | Maximum stacksize for task 130: unlimited
  | Maximum stacksize for task 131: unlimited
  | Maximum stacksize for task 132: unlimited
  | Maximum stacksize for task 133: unlimited
  | Maximum stacksize for task 134: unlimited
  | Maximum stacksize for task 135: unlimited
  | Maximum stacksize for task 136: unlimited
  | Maximum stacksize for task 137: unlimited
  | Maximum stacksize for task 138: unlimited
  | Maximum stacksize for task 139: unlimited
  | Maximum stacksize for task 140: unlimited
  | Maximum stacksize for task 141: unlimited
  | Maximum stacksize for task 142: unlimited
  | Maximum stacksize for task 143: unlimited
  | Maximum stacksize for task 144: unlimited
  | Maximum stacksize for task 145: unlimited
  | Maximum stacksize for task 146: unlimited
  | Maximum stacksize for task 147: unlimited
  | Maximum stacksize for task 148: unlimited
  | Maximum stacksize for task 149: unlimited
  | Maximum stacksize for task 150: unlimited
  | Maximum stacksize for task 151: unlimited
  | Maximum stacksize for task 152: unlimited
  | Maximum stacksize for task 153: unlimited
  | Maximum stacksize for task 154: unlimited
  | Maximum stacksize for task 155: unlimited
  | Maximum stacksize for task 156: unlimited
  | Maximum stacksize for task 157: unlimited
  | Maximum stacksize for task 158: unlimited
  | Maximum stacksize for task 159: unlimited
  | Maximum stacksize for task 160: unlimited
  | Maximum stacksize for task 161: unlimited
  | Maximum stacksize for task 162: unlimited
  | Maximum stacksize for task 163: unlimited
  | Maximum stacksize for task 164: unlimited
  | Maximum stacksize for task 165: unlimited
  | Maximum stacksize for task 166: unlimited
  | Maximum stacksize for task 167: unlimited
  | Maximum stacksize for task 168: unlimited
  | Maximum stacksize for task 169: unlimited
  | Maximum stacksize for task 170: unlimited
  | Maximum stacksize for task 171: unlimited
  | Maximum stacksize for task 172: unlimited
  | Maximum stacksize for task 173: unlimited
  | Maximum stacksize for task 174: unlimited
  | Maximum stacksize for task 175: unlimited
  | Maximum stacksize for task 176: unlimited
  | Maximum stacksize for task 177: unlimited
  | Maximum stacksize for task 178: unlimited
  | Maximum stacksize for task 179: unlimited
  | Maximum stacksize for task 180: unlimited
  | Maximum stacksize for task 181: unlimited
  | Maximum stacksize for task 182: unlimited
  | Maximum stacksize for task 183: unlimited
  | Maximum stacksize for task 184: unlimited
  | Maximum stacksize for task 185: unlimited
  | Maximum stacksize for task 186: unlimited
  | Maximum stacksize for task 187: unlimited
  | Maximum stacksize for task 188: unlimited
  | Maximum stacksize for task 189: unlimited
  | Maximum stacksize for task 190: unlimited
  | Maximum stacksize for task 191: unlimited
  | Maximum stacksize for task 192: unlimited
  | Maximum stacksize for task 193: unlimited
  | Maximum stacksize for task 194: unlimited
  | Maximum stacksize for task 195: unlimited
  | Maximum stacksize for task 196: unlimited
  | Maximum stacksize for task 197: unlimited
  | Maximum stacksize for task 198: unlimited
  | Maximum stacksize for task 199: unlimited
  | Maximum stacksize for task 200: unlimited
  | Maximum stacksize for task 201: unlimited
  | Maximum stacksize for task 202: unlimited
  | Maximum stacksize for task 203: unlimited
  | Maximum stacksize for task 204: unlimited
  | Maximum stacksize for task 205: unlimited
  | Maximum stacksize for task 206: unlimited
  | Maximum stacksize for task 207: unlimited
  | Maximum stacksize for task 208: unlimited
  | Maximum stacksize for task 209: unlimited
  | Maximum stacksize for task 210: unlimited
  | Maximum stacksize for task 211: unlimited
  | Maximum stacksize for task 212: unlimited
  | Maximum stacksize for task 213: unlimited
  | Maximum stacksize for task 214: unlimited
  | Maximum stacksize for task 215: unlimited
  | Current stacksize for task 0: unlimited
  | Current stacksize for task 1: unlimited
  | Current stacksize for task 2: unlimited
  | Current stacksize for task 3: unlimited
  | Current stacksize for task 4: unlimited
  | Current stacksize for task 5: unlimited
  | Current stacksize for task 6: unlimited
  | Current stacksize for task 7: unlimited
  | Current stacksize for task 8: unlimited
  | Current stacksize for task 9: unlimited
  | Current stacksize for task 10: unlimited
  | Current stacksize for task 11: unlimited
  | Current stacksize for task 12: unlimited
  | Current stacksize for task 13: unlimited
  | Current stacksize for task 14: unlimited
  | Current stacksize for task 15: unlimited
  | Current stacksize for task 16: unlimited
  | Current stacksize for task 17: unlimited
  | Current stacksize for task 18: unlimited
  | Current stacksize for task 19: unlimited
  | Current stacksize for task 20: unlimited
  | Current stacksize for task 21: unlimited
  | Current stacksize for task 22: unlimited
  | Current stacksize for task 23: unlimited
  | Current stacksize for task 24: unlimited
  | Current stacksize for task 25: unlimited
  | Current stacksize for task 26: unlimited
  | Current stacksize for task 27: unlimited
  | Current stacksize for task 28: unlimited
  | Current stacksize for task 29: unlimited
  | Current stacksize for task 30: unlimited
  | Current stacksize for task 31: unlimited
  | Current stacksize for task 32: unlimited
  | Current stacksize for task 33: unlimited
  | Current stacksize for task 34: unlimited
  | Current stacksize for task 35: unlimited
  | Current stacksize for task 36: unlimited
  | Current stacksize for task 37: unlimited
  | Current stacksize for task 38: unlimited
  | Current stacksize for task 39: unlimited
  | Current stacksize for task 40: unlimited
  | Current stacksize for task 41: unlimited
  | Current stacksize for task 42: unlimited
  | Current stacksize for task 43: unlimited
  | Current stacksize for task 44: unlimited
  | Current stacksize for task 45: unlimited
  | Current stacksize for task 46: unlimited
  | Current stacksize for task 47: unlimited
  | Current stacksize for task 48: unlimited
  | Current stacksize for task 49: unlimited
  | Current stacksize for task 50: unlimited
  | Current stacksize for task 51: unlimited
  | Current stacksize for task 52: unlimited
  | Current stacksize for task 53: unlimited
  | Current stacksize for task 54: unlimited
  | Current stacksize for task 55: unlimited
  | Current stacksize for task 56: unlimited
  | Current stacksize for task 57: unlimited
  | Current stacksize for task 58: unlimited
  | Current stacksize for task 59: unlimited
  | Current stacksize for task 60: unlimited
  | Current stacksize for task 61: unlimited
  | Current stacksize for task 62: unlimited
  | Current stacksize for task 63: unlimited
  | Current stacksize for task 64: unlimited
  | Current stacksize for task 65: unlimited
  | Current stacksize for task 66: unlimited
  | Current stacksize for task 67: unlimited
  | Current stacksize for task 68: unlimited
  | Current stacksize for task 69: unlimited
  | Current stacksize for task 70: unlimited
  | Current stacksize for task 71: unlimited
  | Current stacksize for task 72: unlimited
  | Current stacksize for task 73: unlimited
  | Current stacksize for task 74: unlimited
  | Current stacksize for task 75: unlimited
  | Current stacksize for task 76: unlimited
  | Current stacksize for task 77: unlimited
  | Current stacksize for task 78: unlimited
  | Current stacksize for task 79: unlimited
  | Current stacksize for task 80: unlimited
  | Current stacksize for task 81: unlimited
  | Current stacksize for task 82: unlimited
  | Current stacksize for task 83: unlimited
  | Current stacksize for task 84: unlimited
  | Current stacksize for task 85: unlimited
  | Current stacksize for task 86: unlimited
  | Current stacksize for task 87: unlimited
  | Current stacksize for task 88: unlimited
  | Current stacksize for task 89: unlimited
  | Current stacksize for task 90: unlimited
  | Current stacksize for task 91: unlimited
  | Current stacksize for task 92: unlimited
  | Current stacksize for task 93: unlimited
  | Current stacksize for task 94: unlimited
  | Current stacksize for task 95: unlimited
  | Current stacksize for task 96: unlimited
  | Current stacksize for task 97: unlimited
  | Current stacksize for task 98: unlimited
  | Current stacksize for task 99: unlimited
  | Current stacksize for task 100: unlimited
  | Current stacksize for task 101: unlimited
  | Current stacksize for task 102: unlimited
  | Current stacksize for task 103: unlimited
  | Current stacksize for task 104: unlimited
  | Current stacksize for task 105: unlimited
  | Current stacksize for task 106: unlimited
  | Current stacksize for task 107: unlimited
  | Current stacksize for task 108: unlimited
  | Current stacksize for task 109: unlimited
  | Current stacksize for task 110: unlimited
  | Current stacksize for task 111: unlimited
  | Current stacksize for task 112: unlimited
  | Current stacksize for task 113: unlimited
  | Current stacksize for task 114: unlimited
  | Current stacksize for task 115: unlimited
  | Current stacksize for task 116: unlimited
  | Current stacksize for task 117: unlimited
  | Current stacksize for task 118: unlimited
  | Current stacksize for task 119: unlimited
  | Current stacksize for task 120: unlimited
  | Current stacksize for task 121: unlimited
  | Current stacksize for task 122: unlimited
  | Current stacksize for task 123: unlimited
  | Current stacksize for task 124: unlimited
  | Current stacksize for task 125: unlimited
  | Current stacksize for task 126: unlimited
  | Current stacksize for task 127: unlimited
  | Current stacksize for task 128: unlimited
  | Current stacksize for task 129: unlimited
  | Current stacksize for task 130: unlimited
  | Current stacksize for task 131: unlimited
  | Current stacksize for task 132: unlimited
  | Current stacksize for task 133: unlimited
  | Current stacksize for task 134: unlimited
  | Current stacksize for task 135: unlimited
  | Current stacksize for task 136: unlimited
  | Current stacksize for task 137: unlimited
  | Current stacksize for task 138: unlimited
  | Current stacksize for task 139: unlimited
  | Current stacksize for task 140: unlimited
  | Current stacksize for task 141: unlimited
  | Current stacksize for task 142: unlimited
  | Current stacksize for task 143: unlimited
  | Current stacksize for task 144: unlimited
  | Current stacksize for task 145: unlimited
  | Current stacksize for task 146: unlimited
  | Current stacksize for task 147: unlimited
  | Current stacksize for task 148: unlimited
  | Current stacksize for task 149: unlimited
  | Current stacksize for task 150: unlimited
  | Current stacksize for task 151: unlimited
  | Current stacksize for task 152: unlimited
  | Current stacksize for task 153: unlimited
  | Current stacksize for task 154: unlimited
  | Current stacksize for task 155: unlimited
  | Current stacksize for task 156: unlimited
  | Current stacksize for task 157: unlimited
  | Current stacksize for task 158: unlimited
  | Current stacksize for task 159: unlimited
  | Current stacksize for task 160: unlimited
  | Current stacksize for task 161: unlimited
  | Current stacksize for task 162: unlimited
  | Current stacksize for task 163: unlimited
  | Current stacksize for task 164: unlimited
  | Current stacksize for task 165: unlimited
  | Current stacksize for task 166: unlimited
  | Current stacksize for task 167: unlimited
  | Current stacksize for task 168: unlimited
  | Current stacksize for task 169: unlimited
  | Current stacksize for task 170: unlimited
  | Current stacksize for task 171: unlimited
  | Current stacksize for task 172: unlimited
  | Current stacksize for task 173: unlimited
  | Current stacksize for task 174: unlimited
  | Current stacksize for task 175: unlimited
  | Current stacksize for task 176: unlimited
  | Current stacksize for task 177: unlimited
  | Current stacksize for task 178: unlimited
  | Current stacksize for task 179: unlimited
  | Current stacksize for task 180: unlimited
  | Current stacksize for task 181: unlimited
  | Current stacksize for task 182: unlimited
  | Current stacksize for task 183: unlimited
  | Current stacksize for task 184: unlimited
  | Current stacksize for task 185: unlimited
  | Current stacksize for task 186: unlimited
  | Current stacksize for task 187: unlimited
  | Current stacksize for task 188: unlimited
  | Current stacksize for task 189: unlimited
  | Current stacksize for task 190: unlimited
  | Current stacksize for task 191: unlimited
  | Current stacksize for task 192: unlimited
  | Current stacksize for task 193: unlimited
  | Current stacksize for task 194: unlimited
  | Current stacksize for task 195: unlimited
  | Current stacksize for task 196: unlimited
  | Current stacksize for task 197: unlimited
  | Current stacksize for task 198: unlimited
  | Current stacksize for task 199: unlimited
  | Current stacksize for task 200: unlimited
  | Current stacksize for task 201: unlimited
  | Current stacksize for task 202: unlimited
  | Current stacksize for task 203: unlimited
  | Current stacksize for task 204: unlimited
  | Current stacksize for task 205: unlimited
  | Current stacksize for task 206: unlimited
  | Current stacksize for task 207: unlimited
  | Current stacksize for task 208: unlimited
  | Current stacksize for task 209: unlimited
  | Current stacksize for task 210: unlimited
  | Current stacksize for task 211: unlimited
  | Current stacksize for task 212: unlimited
  | Current stacksize for task 213: unlimited
  | Current stacksize for task 214: unlimited
  | Current stacksize for task 215: unlimited
 
  Consistency checks for the contents of control.in are next.
 
  MPI_IN_PLACE appears to work with this MPI implementation.
  | Keeping use_mpi_in_place .true. (see manual).
  Target number of points in a grid batch is not set. Defaulting to  100
  Method for grid partitioning is not set. Defaulting to parallel hash+maxmin partitioning.
  Batch size limit is not set. Defaulting to    200
  By default, will store active basis functions for each batch.
  If in need of memory, prune_basis_once .false. can be used to disable this option.
  communication_type for Hartree potential was not specified.
  Defaulting to calc_hartree .
  Pulay mixer: Number of initial linear mixing iterations not set.
  Defaulting to    0 iterations.
  Work space size for distributed Hartree potential not set.
  Defaulting to   0.200000E+03 MB.
  Algorithm-dependent basis array size parameters:
  | n_max_pulay                         :       12
  Maximum number of self-consistency iterations not provided.
  Presetting  1000 iterations.
  Presetting      1001 iterations before the initial mixing cycle
  is restarted anyway using the sc_init_iter criterion / keyword.
  Presetting a factor      1.000 between actual scf density residual
  and density convergence criterion sc_accuracy_rho below which sc_init_iter
  takes no effect.
 * No s.c.f. convergence criteria (sc_accuracy_*) were provided in control.in.
 * The run will proceed with a reasonable default guess, but please check whether.
 * the s.c.f. cycles seem to take too much or too little time.
  Calculation of forces was not defined in control.in. No forces will be calculated.
  Geometry relaxation not requested: no relaxation will be performed.
Requested energy tolerance for BFGS, but no relaxation. Ignoring input.
 * Notice: The s.c.f. convergence criterion sc_accuracy_rho was not provided.
 * We used to stop in this case, and ask the user to provide reasonable
 * scf convergence criteria. However, this led some users to employ criteria
 * that led to extremely long run times, e.g., for simple relaxation.
 * We now preset a default value for sc_accuracy_rho if it is not set.
 * You may still wish to check if this setting is too tight or too loose for your needs.
 * Based on n_atoms and forces and force-correction status, FHI-aims chose sc_accuracy_rho =  0.351188E-05 .
  No accuracy limit for integral partition fn. given. Defaulting to  0.1000E-14.
  No threshold value for u(r) in integrations given. Defaulting to  0.1000E-05.
  No accuracy for occupation numbers given. Defaulting to  0.1000E-12.
  No threshold value for occupation numbers given. Defaulting to  0.0000E+00.
  No accuracy for fermi level given. Defaulting to  0.1000E-19.
  Maximum # of iterations to find E_F not set. Defaulting to  200.
  Preferred method for the eigenvalue solver ('KS_method') not specified in 'control.in'.
  Calling BLACS routine to test compilation state
  Since ScaLAPACK support is enabled, defaulting to ELPA (via ELSI).
  Will not use alltoall communication since running on < 1024 CPUs.
  Threshold for basis singularities not set.
  Default threshold for basis singularities:  0.1000E-04
  partition_type (choice of integration weights) for integrals was not specified.
  | Using a version of the partition function of Stratmann and coworkers ('stratmann_sparse').
  | At each grid point, the set of atoms used to build the partition table is smoothly restricted to
  | only those atoms whose free-atom density would be non-zero at that grid point.
  Partitioning for Hartree potential was not defined. Using partition_type for integrals.
  | Adjusted default value of keyword multip_moments_threshold to:       0.10000000E-11
  | This value may affect high angular momentum components of the Hartree potential in periodic systems.
  Angular momentum expansion for Kerker preconditioner not set explicitly.
  | Using default value of   0
  No explicit requirement for turning off preconditioner.
  | By default, it will be turned off when the charge convergence reaches
  | sc_accuracy_rho  =   0.351188E-05
  No special mixing parameter while Kerker preconditioner is on.
  Using default: charge_mix_param =     0.1000.
  No q(lm)/r^(l+1) cutoff set for long-range Hartree potential.
  | Using default value of  0.100000E-09 .
  | Verify using the multipole_threshold keyword.
  Defaulting to new monopole extrapolation.
  Density update method: automatic selection selected.
  Using density matrix based charge density update.
  Using density matrix based charge density update.
  Using packed matrix style: index .
  Defaulting to use time-reversal symmetry for k-point grid.
  Charge integration errors on the 3D integration grid will be compensated
[...]
  | writing   projected DOS (shifted by the chemical potential) for species Se to file atom_proj_dos_tetrahedron_Se0018.dat.
  | writing   projected DOS (raw data) for species Se to file atom_proj_dos_tetrahedron_Se0018_raw.dat.
  | writing   projected DOS (shifted by the chemical potential) for species Mo to file atom_proj_dos_tetrahedron_Mo0019.dat.
  | writing   projected DOS (raw data) for species Mo to file atom_proj_dos_tetrahedron_Mo0019_raw.dat.
  | writing   projected DOS (shifted by the chemical potential) for species Se to file atom_proj_dos_tetrahedron_Se0020.dat.
  | writing   projected DOS (raw data) for species Se to file atom_proj_dos_tetrahedron_Se0020_raw.dat.
  | writing   projected DOS (shifted by the chemical potential) for species Se to file atom_proj_dos_tetrahedron_Se0021.dat.
  | writing   projected DOS (raw data) for species Se to file atom_proj_dos_tetrahedron_Se0021_raw.dat.
  | writing   projected DOS (shifted by the chemical potential) for species Mo to file atom_proj_dos_tetrahedron_Mo0022.dat.
  | writing   projected DOS (raw data) for species Mo to file atom_proj_dos_tetrahedron_Mo0022_raw.dat.
  | writing   projected DOS (shifted by the chemical potential) for species Se to file atom_proj_dos_tetrahedron_Se0023.dat.
  | writing   projected DOS (raw data) for species Se to file atom_proj_dos_tetrahedron_Se0023_raw.dat.
  | writing   projected DOS (shifted by the chemical potential) for species Se to file atom_proj_dos_tetrahedron_Se0024.dat.
  | writing   projected DOS (raw data) for species Se to file atom_proj_dos_tetrahedron_Se0024_raw.dat.
  | writing   projected DOS (shifted by the chemical potential) for species Mo to file atom_proj_dos_tetrahedron_Mo0025.dat.
  | writing   projected DOS (raw data) for species Mo to file atom_proj_dos_tetrahedron_Mo0025_raw.dat.
  | writing   projected DOS (shifted by the chemical potential) for species Se to file atom_proj_dos_tetrahedron_Se0026.dat.
  | writing   projected DOS (raw data) for species Se to file atom_proj_dos_tetrahedron_Se0026_raw.dat.
  | writing   projected DOS (shifted by the chemical potential) for species Se to file atom_proj_dos_tetrahedron_Se0027.dat.
  | writing   projected DOS (raw data) for species Se to file atom_proj_dos_tetrahedron_Se0027_raw.dat.
  | writing   projected DOS (shifted by the chemical potential) for species Mo to file atom_proj_dos_tetrahedron_Mo0028.dat.
  | writing   projected DOS (raw data) for species Mo to file atom_proj_dos_tetrahedron_Mo0028_raw.dat.
  | writing   projected DOS (shifted by the chemical potential) for species Se to file atom_proj_dos_tetrahedron_Se0029.dat.
  | writing   projected DOS (raw data) for species Se to file atom_proj_dos_tetrahedron_Se0029_raw.dat.
  | writing   projected DOS (shifted by the chemical potential) for species Se to file atom_proj_dos_tetrahedron_Se0030.dat.
  | writing   projected DOS (raw data) for species Se to file atom_proj_dos_tetrahedron_Se0030_raw.dat.
  | writing   projected DOS (shifted by the chemical potential) for species Mo to file atom_proj_dos_tetrahedron_Mo0031.dat.
  | writing   projected DOS (raw data) for species Mo to file atom_proj_dos_tetrahedron_Mo0031_raw.dat.
  | writing   projected DOS (shifted by the chemical potential) for species Se to file atom_proj_dos_tetrahedron_Se0032.dat.
  | writing   projected DOS (raw data) for species Se to file atom_proj_dos_tetrahedron_Se0032_raw.dat.
  | writing   projected DOS (shifted by the chemical potential) for species Se to file atom_proj_dos_tetrahedron_Se0033.dat.
  | writing   projected DOS (raw data) for species Se to file atom_proj_dos_tetrahedron_Se0033_raw.dat.
  | writing   projected DOS (shifted by the chemical potential) for species Mo to file atom_proj_dos_tetrahedron_Mo0034.dat.
  | writing   projected DOS (raw data) for species Mo to file atom_proj_dos_tetrahedron_Mo0034_raw.dat.
  | writing   projected DOS (shifted by the chemical potential) for species Se to file atom_proj_dos_tetrahedron_Se0035.dat.
  | writing   projected DOS (raw data) for species Se to file atom_proj_dos_tetrahedron_Se0035_raw.dat.
  | writing   projected DOS (shifted by the chemical potential) for species Se to file atom_proj_dos_tetrahedron_Se0036.dat.
  | writing   projected DOS (raw data) for species Se to file atom_proj_dos_tetrahedron_Se0036_raw.dat.
  | writing   projected DOS (shifted by the chemical potential) for species Se to file atom_proj_dos_tetrahedron_Se0037.dat.
  | writing   projected DOS (raw data) for species Se to file atom_proj_dos_tetrahedron_Se0037_raw.dat.
  | writing   projected DOS (shifted by the chemical potential) for species Se to file atom_proj_dos_tetrahedron_Se0038.dat.
  | writing   projected DOS (raw data) for species Se to file atom_proj_dos_tetrahedron_Se0038_raw.dat.
  | writing   projected DOS (shifted by the chemical potential) for species Mo to file atom_proj_dos_tetrahedron_Mo0039.dat.
  | writing   projected DOS (raw data) for species Mo to file atom_proj_dos_tetrahedron_Mo0039_raw.dat.
  | writing   projected DOS (shifted by the chemical potential) for species Se to file atom_proj_dos_tetrahedron_Se0040.dat.
  | writing   projected DOS (raw data) for species Se to file atom_proj_dos_tetrahedron_Se0040_raw.dat.
  | writing   projected DOS (shifted by the chemical potential) for species Se to file atom_proj_dos_tetrahedron_Se0041.dat.
  | writing   projected DOS (raw data) for species Se to file atom_proj_dos_tetrahedron_Se0041_raw.dat.
  | writing   projected DOS (shifted by the chemical potential) for species Mo to file atom_proj_dos_tetrahedron_Mo0042.dat.
  | writing   projected DOS (raw data) for species Mo to file atom_proj_dos_tetrahedron_Mo0042_raw.dat.
  | writing   projected DOS (shifted by the chemical potential) for species Se to file atom_proj_dos_tetrahedron_Se0043.dat.
  | writing   projected DOS (raw data) for species Se to file atom_proj_dos_tetrahedron_Se0043_raw.dat.
  | writing   projected DOS (shifted by the chemical potential) for species Se to file atom_proj_dos_tetrahedron_Se0044.dat.
  | writing   projected DOS (raw data) for species Se to file atom_proj_dos_tetrahedron_Se0044_raw.dat.
  | writing   projected DOS (shifted by the chemical potential) for species Mo to file atom_proj_dos_tetrahedron_Mo0045.dat.
  | writing   projected DOS (raw data) for species Mo to file atom_proj_dos_tetrahedron_Mo0045_raw.dat.
  | writing   projected DOS (shifted by the chemical potential) for species Se to file atom_proj_dos_tetrahedron_Se0046.dat.
  | writing   projected DOS (raw data) for species Se to file atom_proj_dos_tetrahedron_Se0046_raw.dat.
  | writing   projected DOS (shifted by the chemical potential) for species Se to file atom_proj_dos_tetrahedron_Se0047.dat.
  | writing   projected DOS (raw data) for species Se to file atom_proj_dos_tetrahedron_Se0047_raw.dat.
  | writing   projected DOS (shifted by the chemical potential) for species Mo to file atom_proj_dos_tetrahedron_Mo0048.dat.
  | writing   projected DOS (raw data) for species Mo to file atom_proj_dos_tetrahedron_Mo0048_raw.dat.
  | writing   projected DOS (shifted by the chemical potential) for species Se to file atom_proj_dos_tetrahedron_Se0049.dat.
  | writing   projected DOS (raw data) for species Se to file atom_proj_dos_tetrahedron_Se0049_raw.dat.
  | writing   projected DOS (shifted by the chemical potential) for species Se to file atom_proj_dos_tetrahedron_Se0050.dat.
  | writing   projected DOS (raw data) for species Se to file atom_proj_dos_tetrahedron_Se0050_raw.dat.
  | writing   projected DOS (shifted by the chemical potential) for species Mo to file atom_proj_dos_tetrahedron_Mo0051.dat.
  | writing   projected DOS (raw data) for species Mo to file atom_proj_dos_tetrahedron_Mo0051_raw.dat.
  | writing   projected DOS (shifted by the chemical potential) for species Se to file atom_proj_dos_tetrahedron_Se0052.dat.
  | writing   projected DOS (raw data) for species Se to file atom_proj_dos_tetrahedron_Se0052_raw.dat.
  | writing   projected DOS (shifted by the chemical potential) for species Se to file atom_proj_dos_tetrahedron_Se0053.dat.
  | writing   projected DOS (raw data) for species Se to file atom_proj_dos_tetrahedron_Se0053_raw.dat.
  | writing   projected DOS (shifted by the chemical potential) for species Mo to file atom_proj_dos_tetrahedron_Mo0054.dat.
  | writing   projected DOS (raw data) for species Mo to file atom_proj_dos_tetrahedron_Mo0054_raw.dat.
  | writing   projected DOS (shifted by the chemical potential) for species Se to file atom_proj_dos_tetrahedron_Se0055.dat.
  | writing   projected DOS (raw data) for species Se to file atom_proj_dos_tetrahedron_Se0055_raw.dat.
  | writing   projected DOS (shifted by the chemical potential) for species Se to file atom_proj_dos_tetrahedron_Se0056.dat.
  | writing   projected DOS (raw data) for species Se to file atom_proj_dos_tetrahedron_Se0056_raw.dat.
  | writing   projected DOS (shifted by the chemical potential) for species Mo to file atom_proj_dos_tetrahedron_Mo0057.dat.
  | writing   projected DOS (raw data) for species Mo to file atom_proj_dos_tetrahedron_Mo0057_raw.dat.
  | writing   projected DOS (shifted by the chemical potential) for species Se to file atom_proj_dos_tetrahedron_Se0058.dat.
  | writing   projected DOS (raw data) for species Se to file atom_proj_dos_tetrahedron_Se0058_raw.dat.
  | writing   projected DOS (shifted by the chemical potential) for species Se to file atom_proj_dos_tetrahedron_Se0059.dat.
  | writing   projected DOS (raw data) for species Se to file atom_proj_dos_tetrahedron_Se0059_raw.dat.
  | writing   projected DOS (shifted by the chemical potential) for species Mo to file atom_proj_dos_tetrahedron_Mo0060.dat.
  | writing   projected DOS (raw data) for species Mo to file atom_proj_dos_tetrahedron_Mo0060_raw.dat.
  | writing   projected DOS (shifted by the chemical potential) for species Se to file atom_proj_dos_tetrahedron_Se0061.dat.
  | writing   projected DOS (raw data) for species Se to file atom_proj_dos_tetrahedron_Se0061_raw.dat.
  | writing   projected DOS (shifted by the chemical potential) for species Se to file atom_proj_dos_tetrahedron_Se0062.dat.
  | writing   projected DOS (raw data) for species Se to file atom_proj_dos_tetrahedron_Se0062_raw.dat.
  | writing   projected DOS (shifted by the chemical potential) for species Mo to file atom_proj_dos_tetrahedron_Mo0063.dat.
  | writing   projected DOS (raw data) for species Mo to file atom_proj_dos_tetrahedron_Mo0063_raw.dat.
  | writing   projected DOS (shifted by the chemical potential) for species Se to file atom_proj_dos_tetrahedron_Se0064.dat.
  | writing   projected DOS (raw data) for species Se to file atom_proj_dos_tetrahedron_Se0064_raw.dat.
  | writing   projected DOS (shifted by the chemical potential) for species Se to file atom_proj_dos_tetrahedron_Se0065.dat.
  | writing   projected DOS (raw data) for species Se to file atom_proj_dos_tetrahedron_Se0065_raw.dat.
  | writing   projected DOS (shifted by the chemical potential) for species Mo to file atom_proj_dos_tetrahedron_Mo0066.dat.
  | writing   projected DOS (raw data) for species Mo to file atom_proj_dos_tetrahedron_Mo0066_raw.dat.
  | writing   projected DOS (shifted by the chemical potential) for species Se to file atom_proj_dos_tetrahedron_Se0067.dat.
  | writing   projected DOS (raw data) for species Se to file atom_proj_dos_tetrahedron_Se0067_raw.dat.
  | writing   projected DOS (shifted by the chemical potential) for species Se to file atom_proj_dos_tetrahedron_Se0068.dat.
  | writing   projected DOS (raw data) for species Se to file atom_proj_dos_tetrahedron_Se0068_raw.dat.
  | writing   projected DOS (shifted by the chemical potential) for species Mo to file atom_proj_dos_tetrahedron_Mo0069.dat.
  | writing   projected DOS (raw data) for species Mo to file atom_proj_dos_tetrahedron_Mo0069_raw.dat.
  | writing   projected DOS (shifted by the chemical potential) for species Se to file atom_proj_dos_tetrahedron_Se0070.dat.
  | writing   projected DOS (raw data) for species Se to file atom_proj_dos_tetrahedron_Se0070_raw.dat.
  | writing   projected DOS (shifted by the chemical potential) for species Se to file atom_proj_dos_tetrahedron_Se0071.dat.
  | writing   projected DOS (raw data) for species Se to file atom_proj_dos_tetrahedron_Se0071_raw.dat.
  | writing   projected DOS (shifted by the chemical potential) for species Mo to file atom_proj_dos_tetrahedron_Mo0072.dat.
  | writing   projected DOS (raw data) for species Mo to file atom_proj_dos_tetrahedron_Mo0072_raw.dat.
  | writing   projected DOS (shifted by the chemical potential) for species Se to file atom_proj_dos_tetrahedron_Se0073.dat.
  | writing   projected DOS (raw data) for species Se to file atom_proj_dos_tetrahedron_Se0073_raw.dat.
  | writing   projected DOS (shifted by the chemical potential) for species Se to file atom_proj_dos_tetrahedron_Se0074.dat.
  | writing   projected DOS (raw data) for species Se to file atom_proj_dos_tetrahedron_Se0074_raw.dat.

  Mulliken analysis                                       :  max(cpu_time)    wall_clock(cpu1)
  | Time for Mulliken analysis                            :          1.106              12.241
  | Total time for Mulliken analysis                      :          1.106              12.241
------------------------------------------------------------

------------------------------------------------------------------------------
  Final output of selected total energy values:

  The following output summarizes some interesting total energy values
  at the end of a run (AFTER all relaxation, molecular dynamics, etc.).

  | Total energy of the DFT / Hartree-Fock s.c.f. calculation      :       -5997076.285026480 eV
  | Final zero-broadening corrected energy (caution - metals only) :       -5997076.285026480 eV
  | For reference only, the value of 1 Hartree used in FHI-aims is :             27.211384500 eV
  | For reference only, the overall average (free atom contribution
  | + realspace contribution) of the electrostatic potential after
  | s.c.f. convergence is                                          :             -1.239569756 eV

  Before relying on these values, please be sure to understand exactly which
  total energy value is referred to by a given number. Different objects may
  all carry the same name 'total energy'. Definitions:

  Total energy of the DFT / Hartree-Fock s.c.f. calculation:
  | Note that this energy does not include ANY quantities calculated after the
  | s.c.f. cycle, in particular not ANY RPA, MP2, etc. many-body perturbation terms.

  Final zero-broadening corrected energy:
  | For metallic systems only, a broadening of the occupation numbers at the Fermi
  | level can be extrapolated back to zero broadening by an electron-gas inspired
  | formula. For all systems that are not real metals, this value can be
  | meaningless and should be avoided.

------------------------------------------------------------------------------
  Methods described in the following list of references were used in this FHI-aims run.
  If you publish the results, please make sure to cite these reference if they apply.
  FHI-aims is an academic code, and for our developers (often, Ph.D. students
  and postdocs), scientific credit in the community is essential.
  Thank you for helping us!

  For any use of FHI-aims, please cite:

    Volker Blum, Ralf Gehrke, Felix Hanke, Paula Havu, Ville Havu,
    Xinguo Ren, Karsten Reuter, and Matthias Scheffler
    'Ab initio molecular simulations with numeric atom-centered orbitals'
    Computer Physics Communications 180, 2175-2196 (2009)
    http://dx.doi.org/10.1016/j.cpc.2009.06.022


  The provided symmetry information was generated with SPGlib:

    Atsushi Togo, Yusuke Seto, Dimitar Pashov
    SPGlib 1.7.3 obtained from http://spglib.sourceforge.net
    Copyright (C) 2008 Atsushi Togo


  The ELSI infrastructure was used in your run to solve the Kohn-Sham electronic structure.
  Please check out http://elsi-interchange.org to learn more.
  If scalability is important for your project, please acknowledge ELSI by citing:

    V. W-z. Yu, F. Corsetti, A. Garcia, W. P. Huhn, M. Jacquelin, W. Jia,
    B. Lange, L. Lin, J. Lu, W. Mi, A. Seifitokaldani, A. Vazquez-Mayagoitia,
    C. Yang, H. Yang, and V. Blum
    'ELSI: A unified software interface for Kohn-Sham electronic structure solvers'
    Computer Physics Communications 222, 267-285 (2018).
    http://dx.doi.org/10.1016/j.cpc.2017.09.007


  For the real-space grid partitioning and parallelization used in this calculation, please cite:

    Ville Havu, Volker Blum, Paula Havu, and Matthias Scheffler,
    'Efficient O(N) integration for all-electron electronic structure calculation'
    'using numerically tabulated basis functions'
    Journal of Computational Physics 228, 8367-8379 (2009).
    http://dx.doi.org/10.1016/j.jcp.2009.08.008

  Of course, there are many other important community references, e.g., those cited in the
  above references. Our list is limited to references that describe implementations in the
  FHI-aims code. The reason is purely practical (length of this list) - please credit others as well.

------------------------------------------------------------
          Leaving FHI-aims.
          Date     :  20220117, Time     :  114810.264

          Computational steps:
          | Number of self-consistency cycles          :           29
          | Number of SCF (re)initializations          :            1

          Detailed time accounting                     :  max(cpu_time)    wall_clock(cpu1)
          | Total time                                  :      246.084 s         246.197 s
          | Preparation time                            :        0.739 s           0.740 s
          | Boundary condition initalization            :        0.855 s           0.855 s
          | Grid partitioning                           :        0.996 s           0.997 s
          | Preloading free-atom quantities on grid     :        0.482 s           0.482 s
          | Free-atom superposition energy              :        0.055 s           0.055 s
          | Total time for integrations                 :       36.363 s          36.366 s
          | Total time for solution of K.-S. equations  :       61.894 s          61.894 s
          | Total time for density update               :       72.839 s          72.839 s
          | Total time for mixing & preconditioning     :        8.727 s           8.593 s
          | Total time for Hartree multipole update     :        0.307 s           0.307 s
          | Total time for Hartree multipole sum        :       42.422 s          42.422 s
          | Total time for total energy evaluation      :        0.027 s           0.024 s
          | Total time for scaled ZORA corrections      :        0.000 s           0.000 s
          | Total time for vdW correction               :        3.942 s           3.937 s
          | Total time for Mulliken analysis            :        1.106 s          12.241 s

          Partial memory accounting:
          | Residual value for overall tracked memory usage across tasks:     0.000000 MB (should be 0.000000 MB)
          | Peak values for overall tracked memory usage:
          |   Minimum:      124.244 MB (on task   9 after allocating temp_ham_ovlp)
          |   Maximum:      125.697 MB (on task  44 after allocating temp_ham_ovlp)
          |   Average:      124.945 MB
          | Largest tracked array allocation:
          |   Minimum:       32.978 MB (overlap_matrix on task   0)
          |   Maximum:       32.978 MB (overlap_matrix on task   0)
          |   Average:       32.978 MB
          Note:  These values currently only include a subset of arrays which are explicitly tracked.
          The "true" memory usage will be greater.

          Have a nice day.
------------------------------------------------------------
