------------------------------------------------------------
          Invoking FHI-aims ...

          When using FHI-aims, please cite the following reference:

            Volker Blum, Ralf Gehrke, Felix Hanke, Paula Havu,
            Ville Havu, Xinguo Ren, Karsten Reuter, and Matthias Scheffler,
            'Ab Initio Molecular Simulations with Numeric Atom-Centered Orbitals',
            Computer Physics Communications 180, 2175-2196 (2009)

          In addition, many other developments in FHI-aims are likely important for
          your particular application. A partial list of references is given at the end of
          this file. Thank you for giving credit to the authors of these developments.

          For any questions about FHI-aims, please visit our slack channel at

            https://fhi-aims.slack.com

          and our main development and support site at

            https://aims-git.rz-berlin.mpg.de .

          The latter site, in particular, has a wiki to collect information, as well
          as an issue tracker to log discussions, suggest improvements, and report issues
          or bugs. https://aims-git.rz-berlin.mpg.de is also the main development site
          of the project and all new and updated code versions can be obtained there.
          Please send an email to aims-coordinators@fhi-berlin.mpg.de and we will add
          you to these sites. They are for you and everyone is welcome there.

------------------------------------------------------------



  Date     :  20210628, Time     :  125940.158
  Time zero on CPU 1             :   0.113131000000000E+00  s.
  Internal wall clock time zero  :           394117180.158  s.

  FHI-aims created a unique identifier for this run for later identification
  aims_uuid : 5E4B08B8-08F3-48CE-A756-04AB8EB4C542

  Build configuration of the current instance of FHI-aims
  -------------------------------------------------------
  FHI-aims version      : 210413
  Commit number         : e4873593e
  CMake host system     : Linux-4.12.14-122.57-default
  CMake version         : 3.5.2
  Fortran compiler      : /mpcdf/soft/SLE_12/packages/x86_64/intel_parallel_studio/2020.1/compilers_and_libraries_2020.1.217/linux/mpi/intel64/bin/mpiifort (Intel) version 19.1.0.20200306
  Fortran compiler flags: -O3 -ip -fp-model precise
  C compiler            : /mpcdf/soft/SLE_12/packages/x86_64/intel/19.1.1/bin/icc (Intel) version 19.1.0.20200306
  C compiler flags      : -O3 -ip -fp-model precise -std=gnu99
  C++ compiler          : /mpcdf/soft/SLE_12/packages/x86_64/intel/19.1.1/bin/icpc (Intel) version 19.1.0.20200306
  C++ compiler flags    : -O3 -ip -fp-model precise -std=gnu99
  Using MPI
  Using ScaLAPACK
  Using LibXC
  Using i-PI
  Using RLSY
  Linking against: /mpcdf/soft/SLE_12/packages/x86_64/intel_parallel_studio/2020.1/mkl/lib/intel64/libmkl_intel_lp64.so
                   /mpcdf/soft/SLE_12/packages/x86_64/intel_parallel_studio/2020.1/mkl/lib/intel64/libmkl_sequential.so
                   /mpcdf/soft/SLE_12/packages/x86_64/intel_parallel_studio/2020.1/mkl/lib/intel64/libmkl_core.so
                   /mpcdf/soft/SLE_12/packages/x86_64/intel_parallel_studio/2020.1/mkl/lib/intel64/libmkl_blacs_intelmpi_lp64.so
                   /mpcdf/soft/SLE_12/packages/x86_64/intel_parallel_studio/2020.1/mkl/lib/intel64/libmkl_scalapack_lp64.so

  Using       40 parallel tasks.
  Task        0 on host co2169 reporting.
  Task        1 on host co2169 reporting.
  Task        2 on host co2169 reporting.
  Task        3 on host co2169 reporting.
  Task        4 on host co2169 reporting.
  Task        5 on host co2169 reporting.
  Task        6 on host co2169 reporting.
  Task        7 on host co2169 reporting.
  Task        8 on host co2169 reporting.
  Task        9 on host co2169 reporting.
  Task       10 on host co2169 reporting.
  Task       11 on host co2169 reporting.
  Task       12 on host co2169 reporting.
  Task       13 on host co2169 reporting.
  Task       14 on host co2169 reporting.
  Task       15 on host co2169 reporting.
  Task       16 on host co2169 reporting.
  Task       17 on host co2169 reporting.
  Task       18 on host co2169 reporting.
  Task       19 on host co2169 reporting.
  Task       20 on host co2169 reporting.
  Task       21 on host co2169 reporting.
  Task       22 on host co2169 reporting.
  Task       23 on host co2169 reporting.
  Task       24 on host co2169 reporting.
  Task       25 on host co2169 reporting.
  Task       26 on host co2169 reporting.
  Task       27 on host co2169 reporting.
  Task       28 on host co2169 reporting.
  Task       29 on host co2169 reporting.
  Task       30 on host co2169 reporting.
  Task       31 on host co2169 reporting.
  Task       32 on host co2169 reporting.
  Task       33 on host co2169 reporting.
  Task       34 on host co2169 reporting.
  Task       35 on host co2169 reporting.
  Task       36 on host co2169 reporting.
  Task       37 on host co2169 reporting.
  Task       38 on host co2169 reporting.
  Task       39 on host co2169 reporting.

  Performing system and environment tests:
  | Environment variable OMP_NUM_THREADS correctly set to 1.
  | Checking for ScaLAPACK...
  | Testing pdtran()...
  | All pdtran() tests passed.

  Obtaining array dimensions for all initial allocations:
  
  -----------------------------------------------------------------------
  Parsing control.in (first pass over file, find array dimensions only).
  The contents of control.in will be repeated verbatim below
  unless switched off by setting 'verbatim_writeout .false.' .
  in the first line of control.in .
  -----------------------------------------------------------------------
  
  ##### Physical settings  ################
  xc                 pbe
  spin               none
  charge      0.0
  relativistic       atomic_zora scalar
  #elsi_restart read
  # SCF settings
  relax_geometry trm 1E-3
  
  #vdw_correction_hirshfeld
  # k-grid settings  (to be adjusted)
  #empty_states 8
  #use_dipole_correction
  #include_spin_orbit non_self_consistent
  
  mixer   pulay
  n_max_pulay        12 # high for metal
  charge_mix_param   0.1 #low for metal
  #many_body_dispersion_nl    beta=0.81 do_rpa=.true. rpa_rescale_eigs=.true. parallel_mode=k_points
  ################################################################################
  #
  #  FHI-aims code project
  # Volker Blum, Fritz Haber Institute Berlin, 2009
  #
  #  Suggested "tight" defaults for S atom (to be pasted into control.in file)
  #
  #  Revised Jan 04, 2011, following tests (SiC) done by Lydia Nemec:
  #     d and g functions of tier 2 now enabled by default.
  #
  ################################################################################
    species        S
  #     global species definitions
      nucleus             16
      mass                32.065
  #
      l_hartree           6
  #
      cut_pot             4.0          2.0  1.0
      basis_dep_cutoff    1e-4
  #
      radial_base         44 7.0
      radial_multiplier   2
      angular_grids       specified
        division   0.4665  110
        division   0.5810  194
        division   0.7139  302
        division   0.8274  434
  #      division   0.9105  590
  #      division   1.0975  770
  #      division   1.2028  974
  #      outer_grid  974
        outer_grid  434
  ################################################################################
  #
  #  Definition of "minimal" basis
  #
  ################################################################################
  #     valence basis states
      valence      3  s   2.
      valence      3  p   4.
  #     ion occupancy
      ion_occ      3  s   1.
      ion_occ      3  p   3.
  ################################################################################
  #
  #  Suggested additional basis functions. For production calculations,
  #  uncomment them one after another (the most important basis functions are
  #  listed first).
  #
  #  Constructed for dimers: 1.6 A, 1.9 A, 2.5 A, 3.25 A, 4.0 A
  #
  ################################################################################
  #  "First tier" - improvements: -652.81 meV to -45.53 meV
       ionic 3 d auto
       hydro 2 p 1.8
       hydro 4 f 7
       ionic 3 s auto
  #  "Second tier" - improvements: -30.20 meV to -1.74 meV
       hydro 4 d 6.2
       hydro 5 g 10.8
  #     hydro 4 p 4.9
  #     hydro 5 f 10
  #     hydro 1 s 0.8
  #  "Third tier" - improvements: -1.04 meV to -0.20 meV
  #     hydro 3 d 3.9
  #     hydro 3 d 2.7
  #     hydro 5 g 12
  #     hydro 4 p 10.4
  #     hydro 5 f 12.4
  #     hydro 2 s 1.9
  #  "Fourth tier" - improvements: -0.35 meV to -0.06 meV
  #     hydro 4 d 10.4
  #     hydro 4 p 7.2
  #     hydro 4 d 10
  #     hydro 5 g 19.2
  #     hydro 4 s 12
  
  ################################################################################
  #
  # For methods that use the localized form of the "resolution of identity" for
  # the two-electron Coulomb operator (RI_method LVL), particularly Hartree-Fock and
  # hybrid density functional calculations, the highest accuracy can be obtained by
  # uncommenting the line beginning with "for_aux"  below, thus adding an extra g radial
  # function to the construction of the product basis set for the expansion.
  # See Ref. New J. Phys. 17, 093020 (2015) for more information, particularly Figs. 1 and 6.
  #
  ################################################################################
  #
  # for_aux hydro 5 g 6.0
  ################################################################################
  #
  #  FHI-aims code project
  # Volker Blum, Fritz Haber Institute Berlin, 2009
  #
  #  Suggested "tight" defaults for Mo atom (to be pasted into control.in file)
  #
  ################################################################################
    species        Mo
  #     global species definitions
      nucleus             42
      mass                95.94
  #
      l_hartree           6
  #
      cut_pot             4.0  2.0  1.0
      basis_dep_cutoff    1e-4
  #
      radial_base         59 7.0
      radial_multiplier   2
      angular_grids specified
        division   0.3117   50
        division   0.6750  110
        division   1.0351  194
        division   1.2073  302
        division   1.6402  434
  #      division   1.9185  590
  #      division   2.0237  770
  #      division   2.0980  974
  #      division   2.7972 1202
  #      outer_grid  974
        outer_grid  434
  ################################################################################
  #
  #  Definition of "minimal" basis
  #
  ################################################################################
  #     valence basis states
      valence      5  s   1.
      valence      4  p   6.
      valence      4  d   5.
  #     ion occupancy
      ion_occ     5  s   0.
      ion_occ     4  p   6.
      ion_occ     4  d   4.
  ################################################################################
  #
  #  Suggested additional basis functions. For production calculations,
  #  uncomment them one after another (the most important basis functions are
  #  listed first).
  #
  #  Constructed for dimers: 1.675 A, 1.9 A, 2.375 A, 3.00 A, 4.00 A
  #
  ################################################################################
  #  "First tier"  - max. impr. -711.23  meV, min. impr. -21.07 meV
       hydro 4 f 8.4
       hydro 3 d 2.8
       ionic 5 p auto
       hydro 5 g 12
       ionic 5 s auto
  #  "Second tier" - max. impr. -39.38  meV, min. impr. -2.68 meV
  #     hydro 4 f 12.4
  #     hydro 3 d 3.3
  #     hydro 6 h 17.2
  #     hydro 4 f 7.6
  #     hydro 3 p 3.0
  #     hydro 1 s 0.65
  #  "Third tier"  - max. impr. -5.50 meV, min. impr. -0.47 meV
  #     hydro 4 f 29.2
  #     hydro 5 g 11.2
  #     hydro 3 d 6.8
  #     hydro 6 h 14.8
  #     hydro 2 p 2.3
  #     hydro 4 s 3.8
  #  "Fourth tier"  - max. impr. -0.58 meV, min. impr. -0.19 meV
  #     hydro 5 f 6.8
  #     hydro 5 d 14.8
  #     hydro 6 s 7.8
  #     hydro 5 g 20.8
  #     hydro 5 d 10.4
  #     hydro 5 p 9.8
  #  Further functions - -0.17 meV and below
  #     hydro 5 d 3.2
  
  -----------------------------------------------------------------------
  Completed first pass over input file control.in .
  -----------------------------------------------------------------------
  
  
  -----------------------------------------------------------------------
  Parsing geometry.in (first pass over file, find array dimensions only).
  The contents of geometry.in will be repeated verbatim below
  unless switched off by setting 'verbatim_writeout .false.' .
  in the first line of geometry.in .
  -----------------------------------------------------------------------
  
  atom  2.2642 5.767 7.6813    S
  atom  2.4187 7.5827 6.7162   S
  atom  0.999 8.8729 7.4735    S
  atom  -0.6529 8.8729 6.235   S
  atom  -1.9182 5.767 6.0272   S
  atom  -0.8036 4.4712 7.184   S
  atom  1.1497 4.4712 6.5245   S
  atom  -2.0726 7.5827 6.9923  S
  
  
  
  
  
  
  
  
  
  
  
  
  
  
  -----------------------------------------------------------------------
  Completed first pass over input file geometry.in .
  -----------------------------------------------------------------------
  

  Basic array size parameters:
  | Number of species                 :        2
  | Number of atoms                   :        8
  | Max. basis fn. angular momentum   :        4
  | Max. atomic/ionic basis occupied n:        5
  | Max. number of basis fn. types    :        3
  | Max. radial fns per species/type  :       10
  | Max. logarithmic grid size        :     1436
  | Max. radial integration grid size :      119
  | Max. angular integration grid size:      434
  | Max. angular grid division number :        8
  | Radial grid for Hartree potential :     1436
  | Number of spin channels           :        1

------------------------------------------------------------
          Reading file control.in.
------------------------------------------------------------
  XC: Using PBE gradient-corrected functionals.
  Spin treatment: No spin polarisation.
  Charge =   0.000000E+00: Neutral system requested explicitly.
  Scalar relativistic treatment of kinetic energy: on-site free-atom approximation to ZORA.
  Geometry relaxation: Modified BFGS - TRM (trust radius method) for lattice optimization.
  Convergence accuracy for geometry relaxation: Maximum force <   0.100000E-02 eV/A.
  Using pulay charge density mixing.
  Pulay mixing - number of memorized iterations:   12
  Charge density mixing - mixing parameter:     0.1000
 
  Reading configuration options for species S                   .
  | Found nuclear charge :  16.0000
  | Found atomic mass :    32.0650000000000      amu
  | Found l_max for Hartree potential  :   6
  | Found cutoff potl. onset [A], width [A], scale factor :    4.00000    2.00000    1.00000
  | Threshold for basis-dependent cutoff potential is   0.100000E-03
  | Found data for basic radial integration grid :    44 points, outermost radius =    7.000 A
  | Found multiplier for basic radial grid :   2
  | Found angular grid specification: user-specified.
  | Specified grid contains     5 separate shells.
  | Check grid settings after all constraints further below.
  | Found free-atom valence shell :  3 s   2.000
  | Found free-atom valence shell :  3 p   4.000
  | Found free-ion valence shell :  3 s   1.000
  | Found free-ion valence shell :  3 p   3.000
  | Found ionic basis function :  3 d , default cutoff radius.
  | Found hydrogenic basis function :  2 p   1.800
  | Found hydrogenic basis function :  4 f   7.000
  | Found ionic basis function :  3 s , default cutoff radius.
  | Found hydrogenic basis function :  4 d   6.200
  | Found hydrogenic basis function :  5 g  10.800
  Species S                   : Missing cutoff potential type.
  Defaulting to exp(1/x)/(1-x)^2 type cutoff potential.
  Species S : No 'logarithmic' tag. Using default grid for free atom:
  | Default logarithmic grid data [bohr] : 0.1000E-03 0.1000E+03 0.1012E+01
  | Will include ionic basis functions of  2.0-fold positive S                    ion.
  Species S : On-site basis accuracy parameter (for Gram-Schmidt orthonormalisation) not specified.
  Using default value basis_acc =  0.1000000E-03.
  Species S                   : Using default innermost maximum threshold i_radial=  2 for radial functions.
  Species S                   : Default cutoff onset for free atom density etc. : 0.40000000E+01 AA.
  Species S                   : Basic radial grid will be enhanced according to radial_multiplier =   2, to contain    89 grid points.
 
  Reading configuration options for species Mo                  .
  | Found nuclear charge :  42.0000
  | Found atomic mass :    95.9400000000000      amu
  | Found l_max for Hartree potential  :   6
  | Found cutoff potl. onset [A], width [A], scale factor :    4.00000    2.00000    1.00000
  | Threshold for basis-dependent cutoff potential is   0.100000E-03
  | Found data for basic radial integration grid :    59 points, outermost radius =    7.000 A
  | Found multiplier for basic radial grid :   2
  | Found angular grid specification: user-specified.
  | Specified grid contains     6 separate shells.
  | Check grid settings after all constraints further below.
  | Found free-atom valence shell :  5 s   1.000
  | Found free-atom valence shell :  4 p   6.000
  | Found free-atom valence shell :  4 d   5.000
  | Found free-ion valence shell :  5 s   0.000
  | Found free-ion valence shell :  4 p   6.000
  | Found free-ion valence shell :  4 d   4.000
  | Found hydrogenic basis function :  4 f   8.400
  | Found hydrogenic basis function :  3 d   2.800
  | Found ionic basis function :  5 p , default cutoff radius.
  | Found hydrogenic basis function :  5 g  12.000
  | Found ionic basis function :  5 s , default cutoff radius.
  Species Mo                  : Missing cutoff potential type.
  Defaulting to exp(1/x)/(1-x)^2 type cutoff potential.
  Species Mo: No 'logarithmic' tag. Using default grid for free atom:
  | Default logarithmic grid data [bohr] : 0.1000E-03 0.1000E+03 0.1012E+01
  | Will include ionic basis functions of  2.0-fold positive Mo                   ion.
  Species Mo: On-site basis accuracy parameter (for Gram-Schmidt orthonormalisation) not specified.
  Using default value basis_acc =  0.1000000E-03.
  Species Mo                  : Using default innermost maximum threshold i_radial=  2 for radial functions.
  Species Mo                  : Default cutoff onset for free atom density etc. : 0.40000000E+01 AA.
  Species Mo                  : Basic radial grid will be enhanced according to radial_multiplier =   2, to contain   119 grid points.
 
  Finished reading input file 'control.in'.
 
------------------------------------------------------------


------------------------------------------------------------
          Reading geometry description geometry.in.
------------------------------------------------------------
  | The smallest distance between any two atoms is         2.06163070 AA.
  | The first atom of this pair is atom number                      6 .
  | The second atom of this pair is atom number                     7 .
  Input structure read successfully.
  The structure contains        8 atoms,  and a total of        128.000 electrons.

  Input geometry:
  | No unit cell requested.
  | Atomic structure:
  |       Atom                x [A]            y [A]            z [A]
  |    1: Species S             2.26420000        5.76700000        7.68130000
  |    2: Species S             2.41870000        7.58270000        6.71620000
  |    3: Species S             0.99900000        8.87290000        7.47350000
  |    4: Species S            -0.65290000        8.87290000        6.23500000
  |    5: Species S            -1.91820000        5.76700000        6.02720000
  |    6: Species S            -0.80360000        4.47120000        7.18400000
  |    7: Species S             1.14970000        4.47120000        6.52450000
  |    8: Species S            -2.07260000        7.58270000        6.99230000

 
  Finished reading input file 'control.in'.
 

------------------------------------------------------------
          Reading geometry description geometry.in.
------------------------------------------------------------
 
  Consistency checks for stacksize environment parameter are next.
 
  | Maximum stacksize for task 0: unlimited
  | Maximum stacksize for task 1: unlimited
  | Maximum stacksize for task 2: unlimited
  | Maximum stacksize for task 3: unlimited
  | Maximum stacksize for task 4: unlimited
  | Maximum stacksize for task 5: unlimited
  | Maximum stacksize for task 6: unlimited
  | Maximum stacksize for task 7: unlimited
  | Maximum stacksize for task 8: unlimited
  | Maximum stacksize for task 9: unlimited
  | Maximum stacksize for task 10: unlimited
  | Maximum stacksize for task 11: unlimited
  | Maximum stacksize for task 12: unlimited
  | Maximum stacksize for task 13: unlimited
  | Maximum stacksize for task 14: unlimited
  | Maximum stacksize for task 15: unlimited
  | Maximum stacksize for task 16: unlimited
  | Maximum stacksize for task 17: unlimited
  | Maximum stacksize for task 18: unlimited
  | Maximum stacksize for task 19: unlimited
  | Maximum stacksize for task 20: unlimited
  | Maximum stacksize for task 21: unlimited
  | Maximum stacksize for task 22: unlimited
  | Maximum stacksize for task 23: unlimited
  | Maximum stacksize for task 24: unlimited
  | Maximum stacksize for task 25: unlimited
  | Maximum stacksize for task 26: unlimited
  | Maximum stacksize for task 27: unlimited
  | Maximum stacksize for task 28: unlimited
  | Maximum stacksize for task 29: unlimited
  | Maximum stacksize for task 30: unlimited
  | Maximum stacksize for task 31: unlimited
  | Maximum stacksize for task 32: unlimited
  | Maximum stacksize for task 33: unlimited
  | Maximum stacksize for task 34: unlimited
  | Maximum stacksize for task 35: unlimited
  | Maximum stacksize for task 36: unlimited
  | Maximum stacksize for task 37: unlimited
  | Maximum stacksize for task 38: unlimited
  | Maximum stacksize for task 39: unlimited
  | Current stacksize for task 0: unlimited
  | Current stacksize for task 1: unlimited
  | Current stacksize for task 2: unlimited
  | Current stacksize for task 3: unlimited
  | Current stacksize for task 4: unlimited
  | Current stacksize for task 5: unlimited
  | Current stacksize for task 6: unlimited
  | Current stacksize for task 7: unlimited
  | Current stacksize for task 8: unlimited
  | Current stacksize for task 9: unlimited
  | Current stacksize for task 10: unlimited
  | Current stacksize for task 11: unlimited
  | Current stacksize for task 12: unlimited
  | Current stacksize for task 13: unlimited
  | Current stacksize for task 14: unlimited
  | Current stacksize for task 15: unlimited
  | Current stacksize for task 16: unlimited
  | Current stacksize for task 17: unlimited
  | Current stacksize for task 18: unlimited
  | Current stacksize for task 19: unlimited
  | Current stacksize for task 20: unlimited
  | Current stacksize for task 21: unlimited
  | Current stacksize for task 22: unlimited
  | Current stacksize for task 23: unlimited
  | Current stacksize for task 24: unlimited
  | Current stacksize for task 25: unlimited
  | Current stacksize for task 26: unlimited
  | Current stacksize for task 27: unlimited
  | Current stacksize for task 28: unlimited
  | Current stacksize for task 29: unlimited
  | Current stacksize for task 30: unlimited
  | Current stacksize for task 31: unlimited
  | Current stacksize for task 32: unlimited
  | Current stacksize for task 33: unlimited
  | Current stacksize for task 34: unlimited
  | Current stacksize for task 35: unlimited
  | Current stacksize for task 36: unlimited
  | Current stacksize for task 37: unlimited
  | Current stacksize for task 38: unlimited
  | Current stacksize for task 39: unlimited
 
  Consistency checks for the contents of control.in are next.
 
  MPI_IN_PLACE appears to work with this MPI implementation.
  | Keeping use_mpi_in_place .true. (see manual).
  Target number of points in a grid batch is not set. Defaulting to  100
  Method for grid partitioning is not set. Defaulting to parallel hash+maxmin partitioning.
  Batch size limit is not set. Defaulting to    200
  By default, will store active basis functions for each batch.
  If in need of memory, prune_basis_once .false. can be used to disable this option.
  communication_type for Hartree potential was not specified.
  Defaulting to calc_hartree .
  Pulay mixer: Number of initial linear mixing iterations not set.
  Defaulting to    0 iterations.
  Work space size for distributed Hartree potential not set.
  Defaulting to   0.200000E+03 MB.
  Algorithm-dependent basis array size parameters:
  | n_max_pulay                         :       12
  Maximum number of self-consistency iterations not provided.
  Presetting  1000 iterations.
  Presetting      1001 iterations before the initial mixing cycle
  is restarted anyway using the sc_init_iter criterion / keyword.
  Presetting a factor      1.000 between actual scf density residual
  and density convergence criterion sc_accuracy_rho below which sc_init_iter
  takes no effect.
 * No s.c.f. convergence criteria (sc_accuracy_*) were provided in control.in.
 * The run will proceed with a reasonable default guess, but please check whether.
 * the s.c.f. cycles seem to take too much or too little time.
  No maximum number of relaxation steps, defaulting to     1000
  Default initial Hessian is Lindh matrix (thres = 15.00) plus  0.200000E+01 eV/A^2 times unity.
  No maximum energy tolerance for TRM/BFGS moves, defaulting to   0.100000E-02
  Maximum energy tolerance by which TRM/BFGS trajectory may increase over multiple steps:   0.300000E-02
  No harmonic length scale. Defaulting to   0.250000E-01 A.
  No trust radius initializer. Defaulting to   0.200000E+00 A.
 * Notice: The s.c.f. convergence criterion sc_accuracy_rho was not provided.
 * We used to stop in this case, and ask the user to provide reasonable
 * scf convergence criteria. However, this led some users to employ criteria
 * that led to extremely long run times, e.g., for simple relaxation.
 * We now preset a default value for sc_accuracy_rho if it is not set.
 * You may still wish to check if this setting is too tight or too loose for your needs.
 * Based on n_atoms, FHI-aims chose sc_accuracy_rho =  0.115470E-05 .
  Force calculation: scf convergence accuracy of forces not set.
  Defaulting to 'sc_accuracy_forces not_checked'.
  Handling of forces: Unphysical translation and rotation will be removed from forces.
  No accuracy limit for integral partition fn. given. Defaulting to  0.1000E-14.
  No threshold value for u(r) in integrations given. Defaulting to  0.1000E-05.
  No occupation type (smearing scheme) given. Defaulting to Gaussian broadening, width =  0.1000E-01 eV.
  The width will be adjusted in iteration number     2 of the first full s.c.f. cycle only.
  S.C.F. convergence parameters will be adjusted in iteration number     2 of the first full s.c.f. cycle only.
  No accuracy for occupation numbers given. Defaulting to  0.1000E-12.
  No threshold value for occupation numbers given. Defaulting to  0.0000E+00.
  No accuracy for fermi level given. Defaulting to  0.1000E-19.
  Maximum # of iterations to find E_F not set. Defaulting to  200.
  Preferred method for the eigenvalue solver ('KS_method') not specified in 'control.in'.
  Calling BLACS routine to test compilation state
  Since ScaLAPACK support is enabled, defaulting to ELPA (via ELSI).
  Will not use alltoall communication since running on < 1024 CPUs.
  Threshold for basis singularities not set.
  Default threshold for basis singularities:  0.1000E-04
  partition_type (choice of integration weights) for integrals was not specified.
  | Using a version of the partition function of Stratmann and coworkers ('stratmann_sparse').
  | At each grid point, the set of atoms used to build the partition table is smoothly restricted to
  | only those atoms whose free-atom density would be non-zero at that grid point.
  Partitioning for Hartree potential was not defined. Using partition_type for integrals.
  | Adjusted default value of keyword multip_moments_threshold to:       0.10000000E-11
  | This value may affect high angular momentum components of the Hartree potential in periodic systems.
  No q(lm)/r^(l+1) cutoff set for long-range Hartree potential.
  | Using default value of  0.100000E-09 .
  | Verify using the multipole_threshold keyword.
  Defaulting to new monopole extrapolation.
  Density update method: automatic selection selected.
  Geometry relaxation: A file "geometry.in.next_step" is written out by default after each step.
  | This file contains the geometry of the current relaxation step as well as
  | the current Hessian matrix needed to restart the relaxation algorithm.
  | If you do not want part or all of this information, use the keywords
  | "write_restart_geometry" or "hessian_to_restart_geometry" to switch the output off.
  Charge integration errors on the 3D integration grid will be compensated
  by explicit normalization and distribution of residual charges.
  Use the "compensate_multipole_errors" flag to change this behaviour.
  Set 'collect_eigenvectors' to be '.true.' for use_density_matrix .false.
 
  Consistency checks for the contents of geometry.in are next.
 
  Number of empty states per atom not set in control.in - providing a guess from actual geometry.
  | Total number of empty states used during s.c.f. cycle:       24
  If you use a very high smearing, use empty_states (per atom!) in control.in to increase this value.

  Structure-dependent array size parameters: 
  | Maximum number of distinct radial functions  :       26
  | Maximum number of basis functions            :      312
  | Number of Kohn-Sham states (occupied + empty):       88
------------------------------------------------------------

------------------------------------------------------------
          Preparing all fixed parts of the calculation.
------------------------------------------------------------
  Determining machine precision:
    2.225073858507201E-308
  Setting up grids for atomic and cluster calculations.

  Creating wave function, potential, and density for free atoms.

  Species: S

  List of occupied orbitals and eigenvalues:
    n    l              occ      energy [Ha]    energy [eV]
    1    0           2.0000       -88.680731     -2413.1255
    2    0           2.0000        -7.781719      -211.7513
    3    0           2.0000        -0.633662       -17.2428
    2    1           6.0000        -5.751976      -156.5192
    3    1           4.0000        -0.257086        -6.9957


  Species: Mo

  List of occupied orbitals and eigenvalues:
    n    l              occ      energy [Ha]    energy [eV]
    1    0           2.0000      -745.344654    -20281.8600
    2    0           2.0000      -103.288246     -2810.6162
    3    0           2.0000       -17.516687      -476.6533
    4    0           2.0000        -2.358559       -64.1796
    5    0           1.0000        -0.145159        -3.9500
    2    1           6.0000       -92.308627     -2511.8455
    3    1           6.0000       -13.936005      -379.2180
    4    1           6.0000        -1.408138       -38.3174
    3    2          10.0000        -8.119011      -220.9295
    4    2           5.0000        -0.132984        -3.6187


  Adding cutoff potential to free-atom effective potential.
  Creating fixed part of basis set: Ionic, confined, hydrogenic.
 
  S                    ion:

  List of free ionic orbitals and eigenvalues:
    n    l      energy [Ha]    energy [eV]
    1    0       -89.703778     -2440.9640
    2    0        -8.775428      -238.7916
    3    0        -1.470343       -40.0101
    2    1        -6.747660      -183.6132
    3    1        -1.048627       -28.5346


  List of ionic basis orbitals and eigenvalues:
    n    l      energy [Ha]    energy [eV]    outer radius [A]
    3    2        -0.495605       -13.4861       5.386362
    3    0        -1.470336       -40.0099       3.967934

 
  S                    hydrogenic:
 
  List of hydrogenic basis orbitals: 
    n    l      effective z      eigenvalue [eV]  inner max. [A]     outer max. [A]     outer radius [A]   
    2    1         1.800000       -11.0118           1.168531           1.168531           5.452614
    4    3         7.000000       -41.6672           1.212182           1.212182           5.066981
    4    2         6.200000       -32.6848           0.582121           1.814567           5.386362
    5    4        10.800000       -63.4785           1.227092           1.227092           4.766538
 
 
  Mo                   ion:

  List of free ionic orbitals and eigenvalues:
    n    l      energy [Ha]    energy [eV]
    1    0      -746.048685    -20301.0176
    2    0      -103.980912     -2829.4646
    3    0       -18.206601      -495.4268
    4    0        -3.040545       -82.7374
    2    1       -93.001013     -2530.6863
    3    1       -14.625827      -397.9890
    4    1        -2.084855       -56.7318
    3    2        -8.808854      -239.7011
    4    2        -0.765435       -20.8285


  List of ionic basis orbitals and eigenvalues:
    n    l      energy [Ha]    energy [eV]    outer radius [A]
    5    1        -0.465587       -12.6693       5.456393
    5    0        -0.650331       -17.6964       5.390095

 
  Mo                   hydrogenic:
 
  List of hydrogenic basis orbitals: 
    n    l      effective z      eigenvalue [eV]  inner max. [A]     outer max. [A]     outer radius [A]   
    4    3         8.400000       -60.0010           1.009788           1.009788           4.487018
    3    2         2.800000       -11.8048           1.687401           1.687401           5.456393
    5    4        12.000000       -78.3687           1.100005           1.100005           4.432498
 
  Creating atomic-like basis functions for current effective potential.

  Species S                   :

  List of atomic basis orbitals and eigenvalues:
    n    l      energy [Ha]    energy [eV]    outer radius [A]
    1    0       -88.680731     -2413.1255       0.682391
    2    0        -7.781719      -211.7513       2.289014
    3    0        -0.633662       -17.2428       5.256262
    2    1        -5.751976      -156.5192       2.555240
    3    1        -0.257086        -6.9957       5.386362


  Species Mo                  :

  List of atomic basis orbitals and eigenvalues:
    n    l      energy [Ha]    energy [eV]    outer radius [A]
    1    0      -745.344654    -20281.8600       0.247552
    2    0      -103.288246     -2810.6162       0.682864
    3    0       -17.516687      -476.6533       1.626637
    4    0        -2.358559       -64.1796       4.220963
    5    0        -0.145159        -3.9500       5.456393
    2    1       -92.308627     -2511.8455       0.699766
    3    1       -13.936005      -379.2180       1.793761
    4    1        -1.408138       -38.3174       4.828511
    3    2        -8.119011      -220.9295       2.181285
    4    2        -0.132984        -3.6187       5.390095

  Assembling full basis from fixed parts.
  | Species S :   atomic orbital   1 s accepted.
  | Species S :   atomic orbital   2 s accepted.
  | Species S :    ionic orbital   3 s accepted.
  | Species S :   atomic orbital   3 s accepted.
  | Species S :   atomic orbital   2 p accepted.
  | Species S :   atomic orbital   3 p accepted.
  | Species S :    hydro orbital   2 p accepted.
  | Species S :    ionic orbital   3 d accepted.
  | Species S :    hydro orbital   4 d accepted.
  | Species S :    hydro orbital   4 f accepted.
  | Species S :    hydro orbital   5 g accepted.
  | Species Mo :   atomic orbital   1 s accepted.
  | Species Mo :   atomic orbital   2 s accepted.
  | Species Mo :   atomic orbital   3 s accepted.
  | Species Mo :   atomic orbital   4 s accepted.
  | Species Mo :    ionic orbital   5 s accepted.
  | Species Mo :   atomic orbital   5 s accepted.
  | Species Mo :   atomic orbital   2 p accepted.
  | Species Mo :   atomic orbital   3 p accepted.
  | Species Mo :   atomic orbital   4 p accepted.
  | Species Mo :    ionic orbital   5 p accepted.
  | Species Mo :   atomic orbital   3 d accepted.
  | Species Mo :   atomic orbital   4 d accepted.
  | Species Mo :    hydro orbital   3 d accepted.
  | Species Mo :    hydro orbital   4 f accepted.
  | Species Mo :    hydro orbital   5 g accepted.
 
  Basis size parameters after reduction:
  | Total number of radial functions:       26
  | Total number of basis functions :      312
 
  Per-task memory consumption for arrays in subroutine allocate_ext:
  |           9.566776MB.
  Testing on-site integration grid accuracy.
  |  Species  Function  <phi|h_atom|phi> (log., in eV)  <phi|h_atom|phi> (rad., in eV)
           1        1              -2413.1254568977              -2413.1254096663
           1        2               -211.7513411281               -211.7513404762
           1        3                -16.9725280787                -16.9725279206
           1        4                  7.6024436204                  7.6024549059
           1        5               -156.5192206929               -156.5192205451
           1        6                 -6.9959757887                 -6.9959777655
           1        7                  6.8896462808                  6.8895564741
           1        8                  6.0214250550                  6.0214220200
           1        9                 19.6206468977                 19.6206494558
           1       10                 24.7008710786                 24.7008710738
           1       11                 47.5292252001                 47.5292260486
           2       12             -20281.8599610543             -20281.8584300616
           2       13              -2810.6161812280              -2810.6161551921
           2       14               -476.6533163555               -476.6533136395
           2       15                -64.1796433667                -64.1796426456
           2       16                 -3.3691762756                 -3.3691802887
           2       17                  4.4704608512                  4.4699102345
           2       18              -2511.8455406047              -2511.8455385741
           2       19               -379.2179896350               -379.2179882338
           2       20                -38.3173891619                -38.3173886619
           2       21                  0.2493245095                  0.2492931069
           2       22               -220.9295301098               -220.9295297081
           2       23                 -3.6195697699                 -3.6195754704
           2       24                  7.1428000922                  7.1426882355
           2       25                 23.3975871087                 23.3975871819
           2       26                 50.2449608881                 50.2449608586

  Preparing densities etc. for the partition functions (integrals / Hartree potential).

  Preparations completed.
  max(cpu_time)          :      0.452 s.
  Wall clock time (cpu1) :      0.838 s.
------------------------------------------------------------

------------------------------------------------------------
          Begin self-consistency loop: Initialization.

          Date     :  20210628, Time     :  125944.217
------------------------------------------------------------

  Initializing index lists of integration centers etc. from given atomic structure:
  | Number of centers in hartree potential         :         8
  | Number of centers in hartree multipole         :         8
  | Number of centers in electron density summation:         8
  | Number of centers in basis integrals           :         8
  | Number of centers in integrals                 :         8
  | Number of centers in hamiltonian               :         8

  Initializing relaxation algorithms.
  Finished initialization of distributed Hessian storage.
  | Global dimension:        24
  | BLACS block size:         1
  | Number of workers:       24

  * Using 40 tasks for Scalapack Eigenvalue solver.
  Detailed listing of tasks and assigned k-points:
  (for non-periodic systems, the "k-point" denotes an internal label only)
   Task     0 k-point     1 on co2169
   Task     1 k-point     1 on co2169
   Task     2 k-point     1 on co2169
   Task     3 k-point     1 on co2169
   Task     4 k-point     1 on co2169
   Task     5 k-point     1 on co2169
   Task     6 k-point     1 on co2169
   Task     7 k-point     1 on co2169
   Task     8 k-point     1 on co2169
   Task     9 k-point     1 on co2169
   Task    10 k-point     1 on co2169
   Task    11 k-point     1 on co2169
   Task    12 k-point     1 on co2169
   Task    13 k-point     1 on co2169
   Task    14 k-point     1 on co2169
   Task    15 k-point     1 on co2169
   Task    16 k-point     1 on co2169
   Task    17 k-point     1 on co2169
   Task    18 k-point     1 on co2169
   Task    19 k-point     1 on co2169
   Task    20 k-point     1 on co2169
   Task    21 k-point     1 on co2169
   Task    22 k-point     1 on co2169
   Task    23 k-point     1 on co2169
   Task    24 k-point     1 on co2169
   Task    25 k-point     1 on co2169
   Task    26 k-point     1 on co2169
   Task    27 k-point     1 on co2169
   Task    28 k-point     1 on co2169
   Task    29 k-point     1 on co2169
   Task    30 k-point     1 on co2169
   Task    31 k-point     1 on co2169
   Task    32 k-point     1 on co2169
   Task    33 k-point     1 on co2169
   Task    34 k-point     1 on co2169
   Task    35 k-point     1 on co2169
   Task    36 k-point     1 on co2169
   Task    37 k-point     1 on co2169
   Task    38 k-point     1 on co2169
   Task    39 k-point     1 on co2169
  Tasks:    40 split into      8 X      5 BLACS grid
  Calculating block size based on n_basis =          312  max_nprow =            8  max_npcol =            5
  ScaLAPACK block size set to:           16
  Allocating        0.023 MB for ovlp
  Allocating        0.023 MB for ham
  Allocating        0.023 MB for eigenvec
  Required Scalapack workspace - INTEGER:            1  REAL:             1
  Partitioning the integration grid into batches with parallel hashing+maxmin method.
  | Number of batches:     2321
  | Maximal batch size:     200
  | Minimal batch size:      22
  | Average batch size:      84.453
  | Standard deviation of batch sizes:      20.844

  Integration load balanced across    40 MPI tasks.
  Work distribution over tasks is as follows:
  Task     0 has       4928 integration points.
  Task     1 has       4937 integration points.
  Task     2 has       4942 integration points.
  Task     3 has       4926 integration points.
  Task     4 has       4921 integration points.
  Task     5 has       4931 integration points.
  Task     6 has       4826 integration points.
  Task     7 has       4931 integration points.
  Task     8 has       4828 integration points.
  Task     9 has       4934 integration points.
  Task    10 has       4964 integration points.
  Task    11 has       4834 integration points.
  Task    12 has       4854 integration points.
  Task    13 has       4882 integration points.
  Task    14 has       4930 integration points.
  Task    15 has       4825 integration points.
  Task    16 has       4940 integration points.
  Task    17 has       4900 integration points.
  Task    18 has       4844 integration points.
  Task    19 has       4924 integration points.
  Task    20 has       4858 integration points.
  Task    21 has       4854 integration points.
  Task    22 has       4962 integration points.
  Task    23 has       4838 integration points.
  Task    24 has       4964 integration points.
  Task    25 has       4882 integration points.
  Task    26 has       4926 integration points.
  Task    27 has       4935 integration points.
  Task    28 has       4931 integration points.
  Task    29 has       4877 integration points.
  Task    30 has       4938 integration points.
  Task    31 has       4845 integration points.
  Task    32 has       4922 integration points.
  Task    33 has       4840 integration points.
  Task    34 has       4896 integration points.
  Task    35 has       4958 integration points.
  Task    36 has       4922 integration points.
  Task    37 has       4830 integration points.
  Task    38 has       4927 integration points.
  Task    39 has       4910 integration points.
  Initializing partition tables, free-atom densities, potentials, etc. across the integration grid (initialize_grid_storage).
  | initialize_grid_storage: Actual outermost partition radius vs. multipole_radius_free
  | (-- VB: in principle, multipole_radius_free should be larger, hence this output)
  | Species        1: Confinement radius =              6.000000000000000 AA, multipole_radius_free =              6.012827091137924 AA.
  | Species        1: outer_partition_radius set to              6.012827091137924 AA .
  | Species        2: Confinement radius =              6.000000000000000 AA, multipole_radius_free =              6.016994434057369 AA.
  | Species        2: outer_partition_radius set to              6.016994434057369 AA .
  | The sparse table of interatomic distances needs          0.71 kbyte instead of         0.51 kbyte of memory.
  | Using the partition_type stratmann_smoother will reduce your memory usage.
  | Net number of integration points:   196016
  | of which are non-zero points    :   181146
  Renormalizing the initial density to the exact electron count on the 3D integration grid.
  | Initial density: Formal number of electrons (from input files) :     128.0000000000
  | Integrated number of electrons on 3D grid     :     127.9999787746
  | Charge integration error                      :      -0.0000212254
  | Normalization factor for density and gradient :       1.0000001658
  Renormalizing the free-atom superposition density to the exact electron count on the 3D integration grid.
  | Formal number of electrons (from input files) :     128.0000000000
  | Integrated number of electrons on 3D grid     :     127.9999787746
  | Charge integration error                      :      -0.0000212254
  | Normalization factor for density and gradient :       1.0000001658
  Obtaining max. number of non-zero basis functions in each batch (get_n_compute_maxes).
  | Maximal number of non-zero basis functions:      296 in task     0
  | Maximal number of non-zero basis functions:      291 in task     1
  | Maximal number of non-zero basis functions:      294 in task     2
  | Maximal number of non-zero basis functions:      303 in task     3
  | Maximal number of non-zero basis functions:      303 in task     4
  | Maximal number of non-zero basis functions:      298 in task     5
  | Maximal number of non-zero basis functions:      304 in task     6
  | Maximal number of non-zero basis functions:      293 in task     7
  | Maximal number of non-zero basis functions:      299 in task     8
  | Maximal number of non-zero basis functions:      295 in task     9
  | Maximal number of non-zero basis functions:      298 in task    10
  | Maximal number of non-zero basis functions:      302 in task    11
  | Maximal number of non-zero basis functions:      298 in task    12
  | Maximal number of non-zero basis functions:      297 in task    13
  | Maximal number of non-zero basis functions:      295 in task    14
  | Maximal number of non-zero basis functions:      292 in task    15
  | Maximal number of non-zero basis functions:      304 in task    16
  | Maximal number of non-zero basis functions:      302 in task    17
  | Maximal number of non-zero basis functions:      301 in task    18
  | Maximal number of non-zero basis functions:      299 in task    19
  | Maximal number of non-zero basis functions:      298 in task    20
  | Maximal number of non-zero basis functions:      300 in task    21
  | Maximal number of non-zero basis functions:      298 in task    22
  | Maximal number of non-zero basis functions:      304 in task    23
  | Maximal number of non-zero basis functions:      298 in task    24
  | Maximal number of non-zero basis functions:      300 in task    25
  | Maximal number of non-zero basis functions:      292 in task    26
  | Maximal number of non-zero basis functions:      303 in task    27
  | Maximal number of non-zero basis functions:      304 in task    28
  | Maximal number of non-zero basis functions:      302 in task    29
  | Maximal number of non-zero basis functions:      298 in task    30
  | Maximal number of non-zero basis functions:      302 in task    31
  | Maximal number of non-zero basis functions:      292 in task    32
  | Maximal number of non-zero basis functions:      298 in task    33
  | Maximal number of non-zero basis functions:      304 in task    34
  | Maximal number of non-zero basis functions:      304 in task    35
  | Maximal number of non-zero basis functions:      297 in task    36
  | Maximal number of non-zero basis functions:      299 in task    37
  | Maximal number of non-zero basis functions:      302 in task    38
  | Maximal number of non-zero basis functions:      296 in task    39
  Selecting the method for density update.
  Loop over occupied states selected for charge density update.
  Allocating        0.209 MB for KS_eigenvector
  Integrating Hamiltonian matrix: batch-based integration.
  Time summed over all CPUs for integration: real work        3.182 s, elapsed        3.428 s
  Integrating overlap matrix.
  Time summed over all CPUs for integration: real work        1.130 s, elapsed        1.348 s
  Deallocating overlap matrix.

  Updating Kohn-Sham eigenvalues and eigenvectors using ELSI and the ELPA eigensolver.
  Overlap matrix is not singular
  | Lowest and highest eigenvalues :  0.4428E-03,  0.4921E+01
  Finished singularity check of overlap matrix
  | Time :     0.059 s
  Starting ELPA eigensolver
  Finished Cholesky decomposition
  | Time :     0.077 s
  Finished transformation to standard eigenproblem
  | Time :     0.009 s
  Finished solving standard eigenproblem
  | Time :     0.015 s
  Finished back-transformation of eigenvectors
  | Time :     0.000 s

  Obtaining occupation numbers and chemical potential using ELSI.
  | Chemical potential (Fermi level):    -5.59180772 eV
  Writing Kohn-Sham eigenvalues.

  State    Occupation    Eigenvalue [Ha]    Eigenvalue [eV]
      1       2.00000         -88.694604        -2413.50296
      2       2.00000         -88.694603        -2413.50296
      3       2.00000         -88.694580        -2413.50231
      4       2.00000         -88.694578        -2413.50227
      5       2.00000         -88.694571        -2413.50207
      6       2.00000         -88.694570        -2413.50204
      7       2.00000         -88.694542        -2413.50129
      8       2.00000         -88.694542        -2413.50129
      9       2.00000          -7.797791         -212.18868
     10       2.00000          -7.797787         -212.18859
     11       2.00000          -7.797772         -212.18816
     12       2.00000          -7.797745         -212.18743
     13       2.00000          -7.797725         -212.18688
     14       2.00000          -7.797712         -212.18654
     15       2.00000          -7.797708         -212.18642
     16       2.00000          -7.797679         -212.18563
     17       2.00000          -5.769003         -156.98255
     18       2.00000          -5.768967         -156.98157
     19       2.00000          -5.768948         -156.98107
     20       2.00000          -5.768845         -156.97825
     21       2.00000          -5.768837         -156.97805
     22       2.00000          -5.768725         -156.97499
     23       2.00000          -5.768708         -156.97453
     24       2.00000          -5.768655         -156.97309
     25       2.00000          -5.767855         -156.95132
     26       2.00000          -5.767833         -156.95072
     27       2.00000          -5.767812         -156.95015
     28       2.00000          -5.767756         -156.94864
     29       2.00000          -5.767743         -156.94826
     30       2.00000          -5.767707         -156.94728
     31       2.00000          -5.767692         -156.94687
     32       2.00000          -5.767667         -156.94622
     33       2.00000          -5.766752         -156.92131
     34       2.00000          -5.766752         -156.92130
     35       2.00000          -5.766727         -156.92063
     36       2.00000          -5.766725         -156.92057
     37       2.00000          -5.766717         -156.92036
     38       2.00000          -5.766716         -156.92032
     39       2.00000          -5.766688         -156.91957
     40       2.00000          -5.766686         -156.91951
     41       2.00000          -0.823778          -22.41615
     42       2.00000          -0.794784          -21.62719
     43       2.00000          -0.794530          -21.62027
     44       2.00000          -0.717893          -19.53487
     45       2.00000          -0.717714          -19.53000
     46       2.00000          -0.613274          -16.68803
     47       2.00000          -0.613261          -16.68769
     48       2.00000          -0.542090          -14.75103
     49       2.00000          -0.451923          -12.29744
     50       2.00000          -0.426373          -11.60220
     51       2.00000          -0.426120          -11.59532
     52       2.00000          -0.394531          -10.73573
     53       2.00000          -0.368668          -10.03196
     54       2.00000          -0.368655          -10.03160
     55       2.00000          -0.362779           -9.87171
     56       2.00000          -0.362711           -9.86988
     57       2.00000          -0.330794           -9.00135
     58       2.00000          -0.278038           -7.56580
     59       2.00000          -0.277450           -7.54979
     60       2.00000          -0.270729           -7.36691
     61       2.00000          -0.270658           -7.36498
     62       2.00000          -0.263277           -7.16412
     63       2.00000          -0.262835           -7.15211
     64       2.00000          -0.256836           -6.98885
     65       0.00000          -0.131854           -3.58792
     66       0.00000          -0.131675           -3.58307
     67       0.00000          -0.119041           -3.23928
     68       0.00000          -0.084785           -2.30712
     69       0.00000          -0.083776           -2.27966
     70       0.00000          -0.083551           -2.27353
     71       0.00000          -0.081487           -2.21738
     72       0.00000          -0.081357           -2.21383
     73       0.00000           0.027538            0.74933
     74       0.00000           0.048764            1.32692
     75       0.00000           0.048823            1.32855
     76       0.00000           0.063868            1.73795
     77       0.00000           0.063915            1.73922
     78       0.00000           0.078959            2.14859
     79       0.00000           0.079264            2.15689
     80       0.00000           0.091159            2.48055
     81       0.00000           0.093023            2.53129
     82       0.00000           0.093225            2.53678
     83       0.00000           0.114837            3.12488
     84       0.00000           0.117528            3.19811
     85       0.00000           0.118190            3.21612
     86       0.00000           0.123099            3.34969
     87       0.00000           0.123129            3.35051
     88       0.00000           0.141521            3.85098

  Highest occupied state (VBM) at     -6.98885358 eV
  | Occupation number:      2.00000000

  Lowest unoccupied state (CBM) at    -3.58792300 eV
  | Occupation number:      0.00000000

  Overall HOMO-LUMO gap:      3.40093058 eV.
  Calculating total energy contributions from superposition of free atom densities.

  Total energy components:
  | Sum of eigenvalues            :       -1842.70944595 Ha      -50142.67525562 eV
  | XC energy correction          :        -204.91129104 Ha       -5575.91992901 eV
  | XC potential correction       :         264.83967329 Ha        7206.65418081 eV
  | Free-atom electrostatic energy:       -1415.57517448 Ha      -38519.76036147 eV
  | Hartree energy correction     :           0.00000000 Ha           0.00000000 eV
  | Entropy correction            :           0.00000000 Ha           0.00000000 eV
  | ---------------------------
  | Total energy                  :       -3198.35623819 Ha      -87031.70136528 eV
  | Total energy, T -> 0          :       -3198.35623819 Ha      -87031.70136528 eV  <-- do not rely on this value for anything but (periodic) metals
  | Electronic free energy        :       -3198.35623819 Ha      -87031.70136528 eV

  Derived energy quantities:
  | Kinetic energy                :        3210.63434507 Ha       87365.80565267 eV
  | Electrostatic energy          :       -6204.07929221 Ha     -168821.58708895 eV
  | Energy correction for multipole
  | error in Hartree potential    :           0.00000000 Ha           0.00000000 eV
  | Sum of eigenvalues per atom                           :       -6267.83440695 eV
  | Total energy (T->0) per atom                          :      -10878.96267066 eV  <-- do not rely on this value for anything but (periodic) metals
  | Electronic free energy per atom                       :      -10878.96267066 eV
  Initialize hartree_potential_storage
  Max. number of atoms included in rho_multipole:            8

  End scf initialization - timings             :  max(cpu_time)    wall_clock(cpu1)
  | Time for scf. initialization               :        0.449 s           0.760 s
  | Boundary condition initialization          :        0.003 s           0.004 s
  | Relaxation initialization                  :        0.012 s           0.026 s
  | Integration                                :        0.117 s           0.144 s
  | Solution of K.-S. eqns.                    :        0.148 s           0.324 s
  | Grid partitioning                          :        0.098 s           0.098 s
  | Preloading free-atom quantities on grid    :        0.046 s           0.068 s
  | Free-atom superposition energy             :        0.009 s           0.011 s
  | Total energy evaluation                    :        0.003 s           0.012 s

  Partial memory accounting:
  | Current value for overall tracked memory usage:
  |   Minimum:        0.631 MB (on task 24)
  |   Maximum:        0.661 MB (on task  0)
  |   Average:        0.646 MB
  | Peak value for overall tracked memory usage:
  |   Minimum:        3.004 MB (on task 26 after allocating wave)
  |   Maximum:        3.137 MB (on task  6 after allocating wave)
  |   Average:        3.075 MB
  | Largest tracked array allocation so far:
  |   Minimum:        0.646 MB (hamiltonian_shell on task  1)
  |   Maximum:        0.917 MB (all_coords on task 21)
  |   Average:        0.704 MB
  Note:  These values currently only include a subset of arrays which are explicitly tracked.
  The "true" memory usage will be greater.
------------------------------------------------------------
  Evaluating new KS density.
  Integration grid: deviation in total charge (<rho> - N_e) =   5.684342E-14

  Time for density update prior                :  max(cpu_time)    wall_clock(cpu1)
  | self-consistency iterative process         :        0.061 s           0.055 s

------------------------------------------------------------
          Begin self-consistency iteration #    1

  Date     :  20210628, Time     :  125945.069
------------------------------------------------------------
  Pulay mixing of updated and previous charge densities.
  Renormalizing the density to the exact electron count on the 3D integration grid.
  | Formal number of electrons (from input files) :     128.0000000000
  | Integrated number of electrons on 3D grid     :     128.0000000000
  | Charge integration error                      :      -0.0000000000
  | Normalization factor for density and gradient :       1.0000000000

  Evaluating partitioned Hartree potential by multipole expansion.
  | Original multipole sum: apparent total charge =  -0.156434E-12
  | Sum of charges compensated after spline to logarithmic grids =   0.191465E-06
  | Analytical far-field extrapolation by fixed multipoles:
  | Hartree multipole sum: apparent total charge =  -0.156454E-12
  Summing up the Hartree potential.
  Time summed over all CPUs for potential: real work        1.139 s, elapsed        1.312 s
  | RMS charge density error from multipole expansion :   0.581284E-03

  Integrating Hamiltonian matrix: batch-based integration.
  Time summed over all CPUs for integration: real work        2.326 s, elapsed        2.484 s

  Updating Kohn-Sham eigenvalues and eigenvectors using ELSI and the ELPA eigensolver.
  Starting ELPA eigensolver
  Finished transformation to standard eigenproblem
  | Time :     0.002 s
  Finished solving standard eigenproblem
  | Time :     0.007 s
  Finished back-transformation of eigenvectors
  | Time :     0.001 s

  Obtaining occupation numbers and chemical potential using ELSI.
  | Chemical potential (Fermi level):    -5.53610346 eV
  Writing Kohn-Sham eigenvalues.

  State    Occupation    Eigenvalue [Ha]    Eigenvalue [eV]
      1       2.00000         -88.690872        -2413.40141
      2       2.00000         -88.690872        -2413.40141
      3       2.00000         -88.690753        -2413.39819
      4       2.00000         -88.690751        -2413.39813
      5       2.00000         -88.690740        -2413.39781
      6       2.00000         -88.690739        -2413.39780
      7       2.00000         -88.690735        -2413.39769
      8       2.00000         -88.690735        -2413.39768
      9       2.00000          -7.794257         -212.09254
     10       2.00000          -7.794257         -212.09251
     11       2.00000          -7.794168         -212.09010
     12       2.00000          -7.794141         -212.08937
     13       2.00000          -7.794133         -212.08914
     14       2.00000          -7.794114         -212.08864
     15       2.00000          -7.794101         -212.08828
     16       2.00000          -7.794093         -212.08805
     17       2.00000          -5.765820         -156.89594
     18       2.00000          -5.765797         -156.89533
     19       2.00000          -5.765741         -156.89380
     20       2.00000          -5.765637         -156.89098
     21       2.00000          -5.765636         -156.89095
     22       2.00000          -5.765524         -156.88789
     23       2.00000          -5.765493         -156.88706
     24       2.00000          -5.765455         -156.88600
     25       2.00000          -5.764406         -156.85747
     26       2.00000          -5.764396         -156.85719
     27       2.00000          -5.764319         -156.85511
     28       2.00000          -5.764264         -156.85360
     29       2.00000          -5.764263         -156.85358
     30       2.00000          -5.764212         -156.85219
     31       2.00000          -5.764189         -156.85157
     32       2.00000          -5.764182         -156.85137
     33       2.00000          -5.762650         -156.80968
     34       2.00000          -5.762650         -156.80968
     35       2.00000          -5.762539         -156.80667
     36       2.00000          -5.762537         -156.80661
     37       2.00000          -5.762527         -156.80634
     38       2.00000          -5.762526         -156.80632
     39       2.00000          -5.762518         -156.80608
     40       2.00000          -5.762517         -156.80606
     41       2.00000          -0.821215          -22.34640
     42       2.00000          -0.792201          -21.55688
     43       2.00000          -0.791936          -21.54967
     44       2.00000          -0.715238          -19.46263
     45       2.00000          -0.715063          -19.45785
     46       2.00000          -0.610500          -16.61254
     47       2.00000          -0.610495          -16.61242
     48       2.00000          -0.539108          -14.66987
     49       2.00000          -0.449572          -12.23348
     50       2.00000          -0.423833          -11.53310
     51       2.00000          -0.423577          -11.52611
     52       2.00000          -0.392089          -10.66929
     53       2.00000          -0.366095           -9.96195
     54       2.00000          -0.366082           -9.96159
     55       2.00000          -0.360328           -9.80504
     56       2.00000          -0.360270           -9.80344
     57       2.00000          -0.328013           -8.92569
     58       2.00000          -0.275198           -7.48852
     59       2.00000          -0.274597           -7.47215
     60       2.00000          -0.267997           -7.29257
     61       2.00000          -0.267927           -7.29066
     62       2.00000          -0.260386           -7.08548
     63       2.00000          -0.259952           -7.07366
     64       2.00000          -0.254003           -6.91177
     65       0.00000          -0.129571           -3.52580
     66       0.00000          -0.129386           -3.52076
     67       0.00000          -0.116658           -3.17442
     68       0.00000          -0.082564           -2.24668
     69       0.00000          -0.081549           -2.21905
     70       0.00000          -0.081310           -2.21255
     71       0.00000          -0.079005           -2.14984
     72       0.00000          -0.078876           -2.14633
     73       0.00000           0.029546            0.80400
     74       0.00000           0.050792            1.38212
     75       0.00000           0.050851            1.38373
     76       0.00000           0.065712            1.78811
     77       0.00000           0.065754            1.78926
     78       0.00000           0.080506            2.19067
     79       0.00000           0.080802            2.19874
     80       0.00000           0.092698            2.52245
     81       0.00000           0.094761            2.57858
     82       0.00000           0.095271            2.59246
     83       0.00000           0.116889            3.18071
     84       0.00000           0.119515            3.25217
     85       0.00000           0.120188            3.27047
     86       0.00000           0.124997            3.40135
     87       0.00000           0.125028            3.40217
     88       0.00000           0.143561            3.90651

  Highest occupied state (VBM) at     -6.91177446 eV
  | Occupation number:      2.00000000

  Lowest unoccupied state (CBM) at    -3.52580411 eV
  | Occupation number:      0.00000000

  Overall HOMO-LUMO gap:      3.38597035 eV.

  Total energy components:
  | Sum of eigenvalues            :       -1842.28986987 Ha      -50131.25800945 eV
  | XC energy correction          :        -204.93594355 Ha       -5576.59075790 eV
  | XC potential correction       :         264.87141697 Ha        7207.51797035 eV
  | Free-atom electrostatic energy:       -1415.57517448 Ha      -38519.76036147 eV
  | Hartree energy correction     :          -0.42350612 Ha         -11.52418783 eV
  | Entropy correction            :           0.00000000 Ha           0.00000000 eV
  | ---------------------------
  | Total energy                  :       -3198.35307705 Ha      -87031.61534631 eV
  | Total energy, T -> 0          :       -3198.35307705 Ha      -87031.61534631 eV  <-- do not rely on this value for anything but (periodic) metals
  | Electronic free energy        :       -3198.35307705 Ha      -87031.61534631 eV

  Derived energy quantities:
  | Kinetic energy                :        3210.70857628 Ha       87367.82558655 eV
  | Electrostatic energy          :       -6204.12570977 Ha     -168822.85017495 eV
  | Energy correction for multipole
  | error in Hartree potential    :          -0.00028284 Ha          -0.00769640 eV
  | Sum of eigenvalues per atom                           :       -6266.40725118 eV
  | Total energy (T->0) per atom                          :      -10878.95191829 eV  <-- do not rely on this value for anything but (periodic) metals
  | Electronic free energy per atom                       :      -10878.95191829 eV
  Evaluating new KS density.
  Integration grid: deviation in total charge (<rho> - N_e) =   5.684342E-14

  Self-consistency convergence accuracy:
  | Change of charge density      :  0.2418E+00
  | Change of sum of eigenvalues  :  0.1142E+02 eV
  | Change of total energy        :  0.8602E-01 eV


------------------------------------------------------------
  End self-consistency iteration #     1       :  max(cpu_time)    wall_clock(cpu1)
  | Time for this iteration                    :        0.174 s           0.195 s
  | Charge density update                      :        0.050 s           0.047 s
  | Density mixing                             :        0.005 s           0.002 s
  | Hartree multipole update                   :        0.012 s           0.014 s
  | Hartree multipole summation                :        0.037 s           0.048 s
  | Integration                                :        0.064 s           0.063 s
  | Solution of K.-S. eqns.                    :        0.012 s           0.012 s
  | Total energy evaluation                    :        0.001 s           0.000 s

  Partial memory accounting:
  | Current value for overall tracked memory usage:
  |   Minimum:        0.631 MB (on task 24)
  |   Maximum:        0.661 MB (on task  0)
  |   Average:        0.646 MB
  | Peak value for overall tracked memory usage:
  |   Minimum:        3.004 MB (on task 26 after allocating wave)
  |   Maximum:        3.137 MB (on task  6 after allocating wave)
  |   Average:        3.075 MB
  | Largest tracked array allocation so far:
  |   Minimum:        1.332 MB (gradient_basis_wave on task  1)
  |   Maximum:        1.392 MB (gradient_basis_wave on task  6)
  |   Average:        1.368 MB
  Note:  These values currently only include a subset of arrays which are explicitly tracked.
  The "true" memory usage will be greater.
------------------------------------------------------------

------------------------------------------------------------
          Begin self-consistency iteration #    2

  Date     :  20210628, Time     :  125945.268
------------------------------------------------------------
  Pulay mixing of updated and previous charge densities.
  Renormalizing the density to the exact electron count on the 3D integration grid.
  | Formal number of electrons (from input files) :     128.0000000000
  | Integrated number of electrons on 3D grid     :     128.0000000000
  | Charge integration error                      :       0.0000000000
  | Normalization factor for density and gradient :       1.0000000000

  Evaluating partitioned Hartree potential by multipole expansion.
  | Original multipole sum: apparent total charge =  -0.127540E-12
  | Sum of charges compensated after spline to logarithmic grids =   0.106167E-05
  | Analytical far-field extrapolation by fixed multipoles:
  | Hartree multipole sum: apparent total charge =  -0.127475E-12
  Summing up the Hartree potential.
  Time summed over all CPUs for potential: real work        0.815 s, elapsed        0.846 s
  | RMS charge density error from multipole expansion :   0.518032E-02

  Integrating Hamiltonian matrix: batch-based integration.
  Time summed over all CPUs for integration: real work        2.326 s, elapsed        2.489 s

  Updating Kohn-Sham eigenvalues and eigenvectors using ELSI and the ELPA eigensolver.
  Starting ELPA eigensolver
  Finished transformation to standard eigenproblem
  | Time :     0.001 s
  Finished solving standard eigenproblem
  | Time :     0.008 s
  Finished back-transformation of eigenvectors
  | Time :     0.000 s

  Obtaining occupation numbers and chemical potential using ELSI.
  | Chemical potential (Fermi level):    -5.11448520 eV
  Highest occupied state (VBM) at     -6.32656953 eV
  | Occupation number:      2.00000000

  Lowest unoccupied state (CBM) at    -3.05668014 eV
  | Occupation number:      0.00000000

  Overall HOMO-LUMO gap:      3.26988939 eV.

  Checking to see if s.c.f. parameters should be adjusted.
  Kept the default occupation width. Value:   0.010000 eV.

  Total energy components:
  | Sum of eigenvalues            :       -1839.22877614 Ha      -50047.96141091 eV
  | XC energy correction          :        -205.14137105 Ha       -5582.18072460 eV
  | XC potential correction       :         265.13450614 Ha        7214.67699067 eV
  | Free-atom electrostatic energy:       -1415.57517448 Ha      -38519.76036147 eV
  | Hartree energy correction     :          -3.53278623 Ha         -96.13200455 eV
  | Entropy correction            :           0.00000000 Ha           0.00000000 eV
  | ---------------------------
  | Total energy                  :       -3198.34360177 Ha      -87031.35751086 eV
  | Total energy, T -> 0          :       -3198.34360177 Ha      -87031.35751086 eV  <-- do not rely on this value for anything but (periodic) metals
  | Electronic free energy        :       -3198.34360177 Ha      -87031.35751086 eV

  Derived energy quantities:
  | Kinetic energy                :        3211.10876622 Ha       87378.71530887 eV
  | Electrostatic energy          :       -6204.31099693 Ha     -168827.89209514 eV
  | Energy correction for multipole
  | error in Hartree potential    :          -0.00265370 Ha          -0.07221097 eV
  | Sum of eigenvalues per atom                           :       -6255.99517636 eV
  | Total energy (T->0) per atom                          :      -10878.91968886 eV  <-- do not rely on this value for anything but (periodic) metals
  | Electronic free energy per atom                       :      -10878.91968886 eV
  Evaluating new KS density.
  Integration grid: deviation in total charge (<rho> - N_e) =   5.684342E-14

  Self-consistency convergence accuracy:
  | Change of charge density      :  0.2149E+00
  | Change of sum of eigenvalues  :  0.8330E+02 eV
  | Change of total energy        :  0.2578E+00 eV


------------------------------------------------------------
  End self-consistency iteration #     2       :  max(cpu_time)    wall_clock(cpu1)
  | Time for this iteration                    :        0.148 s           0.148 s
  | Charge density update                      :        0.048 s           0.047 s
  | Density mixing                             :        0.001 s           0.002 s
  | Hartree multipole update                   :        0.002 s           0.002 s
  | Hartree multipole summation                :        0.022 s           0.022 s
  | Integration                                :        0.064 s           0.063 s
  | Solution of K.-S. eqns.                    :        0.011 s           0.011 s
  | Total energy evaluation                    :        0.000 s           0.001 s

  Partial memory accounting:
  | Current value for overall tracked memory usage:
  |   Minimum:        0.633 MB (on task 24)
  |   Maximum:        0.662 MB (on task  0)
  |   Average:        0.647 MB
  | Peak value for overall tracked memory usage:
  |   Minimum:        3.004 MB (on task 26 after allocating wave)
  |   Maximum:        3.137 MB (on task  6 after allocating wave)
  |   Average:        3.075 MB
  | Largest tracked array allocation so far:
  |   Minimum:        1.332 MB (gradient_basis_wave on task  1)
  |   Maximum:        1.392 MB (gradient_basis_wave on task  6)
  |   Average:        1.368 MB
  Note:  These values currently only include a subset of arrays which are explicitly tracked.
  The "true" memory usage will be greater.
------------------------------------------------------------

------------------------------------------------------------
          Begin self-consistency iteration #    3

  Date     :  20210628, Time     :  125945.417
------------------------------------------------------------
  Pulay mixing of updated and previous charge densities.
  Renormalizing the density to the exact electron count on the 3D integration grid.
  | Formal number of electrons (from input files) :     128.0000000000
  | Integrated number of electrons on 3D grid     :     128.0000000000
  | Charge integration error                      :       0.0000000000
  | Normalization factor for density and gradient :       1.0000000000

  Evaluating partitioned Hartree potential by multipole expansion.
  | Original multipole sum: apparent total charge =  -0.736700E-13
  | Sum of charges compensated after spline to logarithmic grids =   0.954049E-06
  | Analytical far-field extrapolation by fixed multipoles:
  | Hartree multipole sum: apparent total charge =  -0.736269E-13
  Summing up the Hartree potential.
  Time summed over all CPUs for potential: real work        0.817 s, elapsed        0.846 s
  | RMS charge density error from multipole expansion :   0.555466E-02

  Integrating Hamiltonian matrix: batch-based integration.
  Time summed over all CPUs for integration: real work        2.332 s, elapsed        2.505 s

  Updating Kohn-Sham eigenvalues and eigenvectors using ELSI and the ELPA eigensolver.
  Starting ELPA eigensolver
  Finished transformation to standard eigenproblem
  | Time :     0.002 s
  Finished solving standard eigenproblem
  | Time :     0.008 s
  Finished back-transformation of eigenvectors
  | Time :     0.001 s

  Obtaining occupation numbers and chemical potential using ELSI.
  | Chemical potential (Fermi level):    -5.21820892 eV
  Highest occupied state (VBM) at     -6.46409895 eV
  | Occupation number:      2.00000000

  Lowest unoccupied state (CBM) at    -3.18845183 eV
  | Occupation number:      0.00000000

  Overall HOMO-LUMO gap:      3.27564712 eV.

  Total energy components:
  | Sum of eigenvalues            :       -1840.53188546 Ha      -50083.42081984 eV
  | XC energy correction          :        -205.06573038 Ha       -5580.12243702 eV
  | XC potential correction       :         265.03473979 Ha        7211.96221042 eV
  | Free-atom electrostatic energy:       -1415.57517448 Ha      -38519.76036147 eV
  | Hartree energy correction     :          -2.20505921 Ha         -60.00271388 eV
  | Entropy correction            :           0.00000000 Ha           0.00000000 eV
  | ---------------------------
  | Total energy                  :       -3198.34310973 Ha      -87031.34412179 eV
  | Total energy, T -> 0          :       -3198.34310973 Ha      -87031.34412179 eV  <-- do not rely on this value for anything but (periodic) metals
  | Electronic free energy        :       -3198.34310973 Ha      -87031.34412179 eV

  Derived energy quantities:
  | Kinetic energy                :        3210.25349852 Ha       87355.44229074 eV
  | Electrostatic energy          :       -6203.53087788 Ha     -168806.66397552 eV
  | Energy correction for multipole
  | error in Hartree potential    :          -0.00322338 Ha          -0.08771275 eV
  | Sum of eigenvalues per atom                           :       -6260.42760248 eV
  | Total energy (T->0) per atom                          :      -10878.91801522 eV  <-- do not rely on this value for anything but (periodic) metals
  | Electronic free energy per atom                       :      -10878.91801522 eV
  Evaluating new KS density.
  Integration grid: deviation in total charge (<rho> - N_e) =   8.526513E-14

  Self-consistency convergence accuracy:
  | Change of charge density      :  0.2730E-01
[...]
   Total forces(   4)            : -0.356667E-03 -0.187472E-03 -0.198048E-03
  atom #    5
   Hellmann-Feynman              : -0.155740E+02 -0.823016E+01 -0.285953E+02
   Ionic forces                  :  0.000000E+00  0.000000E+00  0.000000E+00
   Multipole                     : -0.397718E-01 -0.126760E-01  0.566109E-01
   Pulay + GGA                   :  0.156138E+02  0.824311E+01  0.285386E+02
   ----------------------------------------------------------------
   Total forces(   5)            :  0.373849E-04  0.270262E-03 -0.163886E-03
  atom #    6
   Hellmann-Feynman              : -0.121839E+02 -0.198757E+02  0.241748E+02
   Ionic forces                  :  0.000000E+00  0.000000E+00  0.000000E+00
   Multipole                     : -0.267654E-02 -0.304906E-01 -0.634054E-01
   Pulay + GGA                   :  0.121868E+02  0.199060E+02 -0.241111E+02
   ----------------------------------------------------------------
   Total forces(   6)            :  0.280421E-03 -0.174731E-03  0.243215E-03
  atom #    7
   Hellmann-Feynman              :  0.121838E+02 -0.198757E+02 -0.241748E+02
   Ionic forces                  :  0.000000E+00  0.000000E+00  0.000000E+00
   Multipole                     :  0.267669E-02 -0.304911E-01  0.634051E-01
   Pulay + GGA                   : -0.121867E+02  0.199060E+02  0.241112E+02
   ----------------------------------------------------------------
   Total forces(   7)            : -0.273331E-03 -0.178842E-03 -0.239961E-03
  atom #    8
   Hellmann-Feynman              : -0.236800E+02  0.823032E+01  0.223463E+02
   Ionic forces                  :  0.000000E+00  0.000000E+00  0.000000E+00
   Multipole                     : -0.203255E-01  0.126887E-01 -0.661694E-01
   Pulay + GGA                   :  0.237003E+02 -0.824293E+01 -0.222802E+02
   ----------------------------------------------------------------
   Total forces(   8)            : -0.201178E-04  0.804879E-04 -0.420850E-04


  Self-consistency convergence accuracy:
  | Change of charge density      :  0.2202E-06
  | Change of sum of eigenvalues  :  0.5380E-05 eV
  | Change of total energy        : -0.5692E-09 eV
  | Change of forces              :  0.3356E+02 eV/A

  Writing Kohn-Sham eigenvalues.

  State    Occupation    Eigenvalue [Ha]    Eigenvalue [eV]
      1       2.00000         -88.678466        -2413.06383
      2       2.00000         -88.678466        -2413.06383
      3       2.00000         -88.678463        -2413.06375
      4       2.00000         -88.678463        -2413.06375
      5       2.00000         -88.678461        -2413.06370
      6       2.00000         -88.678461        -2413.06370
      7       2.00000         -88.678460        -2413.06366
      8       2.00000         -88.678460        -2413.06366
      9       2.00000          -7.780037         -211.70558
     10       2.00000          -7.780026         -211.70529
     11       2.00000          -7.780026         -211.70527
     12       2.00000          -7.779999         -211.70453
     13       2.00000          -7.779998         -211.70453
     14       2.00000          -7.779971         -211.70379
     15       2.00000          -7.779971         -211.70378
     16       2.00000          -7.779960         -211.70348
     17       2.00000          -5.754904         -156.59890
     18       2.00000          -5.754858         -156.59766
     19       2.00000          -5.754858         -156.59765
     20       2.00000          -5.754746         -156.59460
     21       2.00000          -5.754746         -156.59460
     22       2.00000          -5.754630         -156.59146
     23       2.00000          -5.754630         -156.59145
     24       2.00000          -5.754584         -156.59020
     25       2.00000          -5.751164         -156.49714
     26       2.00000          -5.751139         -156.49645
     27       2.00000          -5.751138         -156.49644
     28       2.00000          -5.751080         -156.49484
     29       2.00000          -5.751080         -156.49484
     30       2.00000          -5.751024         -156.49333
     31       2.00000          -5.751024         -156.49332
     32       2.00000          -5.751002         -156.49273
     33       2.00000          -5.744119         -156.30543
     34       2.00000          -5.744119         -156.30543
     35       2.00000          -5.744116         -156.30536
     36       2.00000          -5.744116         -156.30535
     37       2.00000          -5.744114         -156.30531
     38       2.00000          -5.744114         -156.30530
     39       2.00000          -5.744113         -156.30527
     40       2.00000          -5.744113         -156.30526
     41       2.00000          -0.804218          -21.88390
     42       2.00000          -0.775217          -21.09472
     43       2.00000          -0.775216          -21.09469
     44       2.00000          -0.698620          -19.01043
     45       2.00000          -0.698620          -19.01041
     46       2.00000          -0.594293          -16.17153
     47       2.00000          -0.594290          -16.17144
     48       2.00000          -0.522708          -14.22360
     49       2.00000          -0.434705          -11.82893
     50       2.00000          -0.408001          -11.10227
     51       2.00000          -0.407997          -11.10218
     52       2.00000          -0.376293          -10.23946
     53       2.00000          -0.350753           -9.54449
     54       2.00000          -0.350753           -9.54448
     55       2.00000          -0.345115           -9.39107
     56       2.00000          -0.345112           -9.39096
     57       2.00000          -0.310452           -8.44782
     58       2.00000          -0.258052           -7.02195
     59       2.00000          -0.258043           -7.02172
     60       2.00000          -0.251519           -6.84418
     61       2.00000          -0.251519           -6.84417
     62       2.00000          -0.242904           -6.60976
     63       2.00000          -0.242897           -6.60957
     64       2.00000          -0.237210           -6.45481
     65       0.00000          -0.117733           -3.20367
     66       0.00000          -0.117726           -3.20348
     67       0.00000          -0.104163           -2.83441
     68       0.00000          -0.071354           -1.94163
     69       0.00000          -0.069633           -1.89482
     70       0.00000          -0.069628           -1.89467
     71       0.00000          -0.066443           -1.80799
     72       0.00000          -0.066442           -1.80798
     73       0.00000           0.042787            1.16428
     74       0.00000           0.063501            1.72795
     75       0.00000           0.063502            1.72798
     76       0.00000           0.077511            2.10918
     77       0.00000           0.077513            2.10923
     78       0.00000           0.090136            2.45272
     79       0.00000           0.090141            2.45286
     80       0.00000           0.102214            2.78138
     81       0.00000           0.105739            2.87731
     82       0.00000           0.108166            2.94335
     83       0.00000           0.129301            3.51846
     84       0.00000           0.131526            3.57899
     85       0.00000           0.131537            3.57931
     86       0.00000           0.136358            3.71049
     87       0.00000           0.136358            3.71050
     88       0.00000           0.155207            4.22339

  Highest occupied state (VBM) at     -6.45480570 eV
  | Occupation number:      2.00000000

  Lowest unoccupied state (CBM) at    -3.20366684 eV
  | Occupation number:      0.00000000

  Overall HOMO-LUMO gap:      3.25113885 eV.

  Self-consistency cycle converged.


------------------------------------------------------------
  End self-consistency iteration #     8       :  max(cpu_time)    wall_clock(cpu1)
  | Time for this iteration                    :        0.383 s           0.384 s
  | Charge density & force component update    :        0.238 s           0.238 s
  | Density mixing                             :        0.002 s           0.002 s
  | Hartree multipole update                   :        0.002 s           0.003 s
  | Hartree multipole summation                :        0.069 s           0.069 s
  | Integration                                :        0.062 s           0.062 s
  | Solution of K.-S. eqns.                    :        0.008 s           0.008 s
  | Total energy evaluation                    :        0.000 s           0.001 s

  Partial memory accounting:
  | Current value for overall tracked memory usage:
  |   Minimum:        0.650 MB (on task 24)
  |   Maximum:        0.689 MB (on task  0)
  |   Average:        0.669 MB
  | Peak value for overall tracked memory usage:
  |   Minimum:        5.727 MB (on task  1 after allocating hessian_basis_wave)
  |   Maximum:        5.804 MB (on task  3 after allocating hessian_basis_wave)
  |   Average:        5.771 MB
  | Largest tracked array allocation so far:
  |   Minimum:        2.737 MB (hessian_basis_wave on task  1)
  |   Maximum:        2.783 MB (hessian_basis_wave on task  3)
  |   Average:        2.777 MB
  Note:  These values currently only include a subset of arrays which are explicitly tracked.
  The "true" memory usage will be greater.
------------------------------------------------------------
  Removing unitary transformations (pure translations, rotations) from forces on atoms.
  Atomic forces before filtering:
  | Net force on center of mass :   0.551982E-06 -0.302403E-04 -0.245320E-05 eV/A
  | Net torque on center of mass:   0.101167E-06 -0.167203E-03  0.297862E-07 eV
  Atomic forces after filtering:
  | Net force on center of mass :  -0.299449E-19 -0.435562E-19  0.217781E-19 eV/A
  | Net torque on center of mass:   0.302517E-19  0.345734E-19 -0.668419E-18 eV

  Energy and forces in a compact form:
  | Total energy uncorrected      :         -0.870313469573290E+05 eV
  | Total energy corrected        :         -0.870313469573290E+05 eV  <-- do not rely on this value for anything but (periodic) metals
  | Electronic free energy        :         -0.870313469573290E+05 eV
  Total atomic forces (unitary forces cleaned) [eV/Ang]:
  |    1         -0.421489946468436E-04          0.268261143090746E-03          0.146354520910481E-03
  |    2          0.237501840582655E-04          0.914043234760249E-04          0.260320996535948E-04
  |    3          0.359978544652835E-03         -0.188269359872052E-03          0.191738691356038E-03
  |    4         -0.360960246971377E-03         -0.183694161343141E-03         -0.192157456100812E-03
  |    5          0.317125928058447E-04          0.274040219432398E-03         -0.149341381003536E-03
  |    6          0.282630822357076E-03         -0.170948485766685E-03          0.250159382606451E-03
  |    7         -0.275683795876191E-03         -0.175064300539177E-03         -0.246274097758321E-03
  |    8         -0.192791063796100E-04          0.842706215218862E-04         -0.265117596638964E-04

  ------------------------------------ 
  Start decomposition of the XC Energy 
  ------------------------------------ 
  X and C from original XC functional choice 
  Hartree-Fock Energy :          0.000000000 Ha              0.000000000 eV
  X Energy            :       -200.052070626 Ha          -5443.693813821 eV
  C Energy            :         -5.002856534 Ha           -136.134652746 eV
  Total XC Energy     :       -205.054927160 Ha          -5579.828466567 eV
  ------------------------------------ 
  LDA X and C from self-consistent density 
  X Energy LDA        :       -185.463029740 Ha          -5046.705812788 eV
  C Energy LDA        :         -9.954309717 Ha           -270.870549138 eV
  ------------------------------------ 
  End decomposition of the XC Energy 
  ------------------------------------ 

------------------------------------------------------------
  Relaxation / MD: End force evaluation.       :  max(cpu_time)    wall_clock(cpu1)
  | Time for this force evaluation             :        1.850 s           1.852 s

------------------------------------------------------------
  Geometry optimization: Attempting to predict improved coordinates.

  Removing unitary transformations (pure translations, rotations) from forces on atoms.
  Atomic forces before filtering:
  | Net force on center of mass :  -0.299449E-19 -0.435562E-19  0.217781E-19 eV/A
  | Net torque on center of mass:   0.302517E-19  0.345734E-19 -0.668419E-18 eV
  Atomic forces after filtering:
  | Net force on center of mass :  -0.408339E-19 -0.544452E-19  0.544452E-20 eV/A
  | Net torque on center of mass:   0.547412E-19  0.806713E-19 -0.633846E-18 eV
  Net remaining forces (excluding translations, rotations) in present geometry:
  || Forces on atoms   || =   0.360960E-03 eV/A.
  Maximum force component is  0.360960E-03 eV/A.
  Present geometry is converged.

------------------------------------------------------------
  Final atomic structure:
                         x [A]             y [A]             z [A]
            atom         2.27441722        5.75999284        7.68131514  S
            atom         2.42736346        7.58687178        6.72038639  S
            atom         0.99871840        8.87881532        7.47816040  S
            atom        -0.65263401        8.87881752        6.23033851  S
            atom        -1.92834483        5.76000090        6.02718564  S
            atom        -0.80558188        4.46811145        7.19102171  S
            atom         1.15164707        4.46810846        6.51747913  S
            atom        -2.08128542        7.58688173        6.98811308  S
------------------------------------------------------------

------------------------------------------------------------------------------
  Final output of selected total energy values:

  The following output summarizes some interesting total energy values
  at the end of a run (AFTER all relaxation, molecular dynamics, etc.).

  | Total energy of the DFT / Hartree-Fock s.c.f. calculation      :         -87031.346957329 eV
  | Final zero-broadening corrected energy (caution - metals only) :         -87031.346957329 eV
  | For reference only, the value of 1 Hartree used in FHI-aims is :             27.211384500 eV

  Before relying on these values, please be sure to understand exactly which
  total energy value is referred to by a given number. Different objects may
  all carry the same name 'total energy'. Definitions:

  Total energy of the DFT / Hartree-Fock s.c.f. calculation:
  | Note that this energy does not include ANY quantities calculated after the
  | s.c.f. cycle, in particular not ANY RPA, MP2, etc. many-body perturbation terms.

  Final zero-broadening corrected energy:
  | For metallic systems only, a broadening of the occupation numbers at the Fermi
  | level can be extrapolated back to zero broadening by an electron-gas inspired
  | formula. For all systems that are not real metals, this value can be
  | meaningless and should be avoided.

------------------------------------------------------------------------------
  Methods described in the following list of references were used in this FHI-aims run.
  If you publish the results, please make sure to cite these reference if they apply.
  FHI-aims is an academic code, and for our developers (often, Ph.D. students
  and postdocs), scientific credit in the community is essential.
  Thank you for helping us!

  For any use of FHI-aims, please cite:

    Volker Blum, Ralf Gehrke, Felix Hanke, Paula Havu, Ville Havu,
    Xinguo Ren, Karsten Reuter, and Matthias Scheffler
    'Ab initio molecular simulations with numeric atom-centered orbitals'
    Computer Physics Communications 180, 2175-2196 (2009)
    http://dx.doi.org/10.1016/j.cpc.2009.06.022


  The ELSI infrastructure was used in your run to solve the Kohn-Sham electronic structure.
  Please check out http://elsi-interchange.org to learn more.
  If scalability is important for your project, please acknowledge ELSI by citing:

    V. W-z. Yu, F. Corsetti, A. Garcia, W. P. Huhn, M. Jacquelin, W. Jia,
    B. Lange, L. Lin, J. Lu, W. Mi, A. Seifitokaldani, A. Vazquez-Mayagoitia,
    C. Yang, H. Yang, and V. Blum
    'ELSI: A unified software interface for Kohn-Sham electronic structure solvers'
    Computer Physics Communications 222, 267-285 (2018).
    http://dx.doi.org/10.1016/j.cpc.2017.09.007


  For the real-space grid partitioning and parallelization used in this calculation, please cite:

    Ville Havu, Volker Blum, Paula Havu, and Matthias Scheffler,
    'Efficient O(N) integration for all-electron electronic structure calculation'
    'using numerically tabulated basis functions'
    Journal of Computational Physics 228, 8367-8379 (2009).
    http://dx.doi.org/10.1016/j.jcp.2009.08.008

  Of course, there are many other important community references, e.g., those cited in the
  above references. Our list is limited to references that describe implementations in the
  FHI-aims code. The reason is purely practical (length of this list) - please credit others as well.

------------------------------------------------------------
          Leaving FHI-aims.
          Date     :  20210628, Time     :  130001.680

          Computational steps:
          | Number of self-consistency cycles          :           86
          | Number of SCF (re)initializations          :            8
          | Number of relaxation steps                 :            7

          Detailed time accounting                     :  max(cpu_time)    wall_clock(cpu1)
          | Total time                                 :       18.591 s          21.522 s
          | Preparation time                           :        0.452 s           0.838 s
          | Boundary condition initalization           :        0.004 s           0.007 s
          | Grid partitioning                          :        0.675 s           0.672 s
          | Preloading free-atom quantities on grid    :        0.150 s           0.174 s
          | Free-atom superposition energy             :        0.046 s           0.048 s
          | Total time for integrations                :        5.778 s           5.812 s
          | Total time for solution of K.-S. equations :        0.961 s           1.141 s
          | Total time for EV reorthonormalization     :        0.032 s           0.328 s
          | Total time for density & force components  :        6.131 s           6.130 s
          | Total time for mixing                      :        0.142 s           0.137 s
          | Total time for Hartree multipole update    :        0.210 s           0.212 s
          | Total time for Hartree multipole sum       :        2.326 s           2.343 s
          | Total time for total energy evaluation     :        0.028 s           0.025 s
          | Total time for scaled ZORA corrections     :        0.000 s           0.000 s

          Partial memory accounting:
          | Residual value for overall tracked memory usage across tasks:     0.000000 MB (should be 0.000000 MB)
          | Peak values for overall tracked memory usage:
          |   Minimum:        5.727 MB (on task  1 after allocating hessian_basis_wave)
          |   Maximum:        5.804 MB (on task  3 after allocating hessian_basis_wave)
          |   Average:        5.771 MB
          | Largest tracked array allocation:
          |   Minimum:        2.737 MB (hessian_basis_wave on task  1)
          |   Maximum:        2.783 MB (hessian_basis_wave on task  3)
          |   Average:        2.777 MB
          Note:  These values currently only include a subset of arrays which are explicitly tracked.
          The "true" memory usage will be greater.

          Have a nice day.
------------------------------------------------------------
