
     Program PWSCF v.6.4.1 starts on  9Jun2021 at 21:26:58 

     This program is part of the open-source Quantum ESPRESSO suite
     for quantum simulation of materials; please cite
         "P. Giannozzi et al., J. Phys.:Condens. Matter 21 395502 (2009);
         "P. Giannozzi et al., J. Phys.:Condens. Matter 29 465901 (2017);
          URL http://www.quantum-espresso.org", 
     in publications or presentations arising from this work. More details at
     http://www.quantum-espresso.org/quote

     Parallel version (MPI & OpenMP), running on     160 processor cores
     Number of MPI processes:               160
     Threads/MPI process:                     1

     MPI processes distributed on     5 nodes
     R & G space division:  proc/nbgrp/npool/nimage =     160
     Waiting for input...
     Reading input from standard input

     Current dimensions of program PWSCF are:
     Max number of different atomic species (ntypx) = 10
     Max number of k-points (npk) =  40000
     Max angular momentum in pseudopotentials (lmaxx) =  3

     Atomic positions and unit cell read from directory:
     ./unfold.save/
 

     Subspace diagonalization in iterative solution of the eigenvalue problem:
     one sub-group per band group will be used
     scalapack distributed-memory algorithm (size of sub-group:  8*  8 procs)

 
     Parallelization info
     --------------------
     sticks:   dense  smooth     PW     G-vecs:    dense   smooth      PW
     Min          46      46     12                 4094     4094     550
     Max          47      47     14                 4105     4105     559
     Sum        7471    7471   1957               656009   656009   88399
 


     bravais-lattice index     =            0
     lattice parameter (alat)  =      30.0466  a.u.
     unit-cell volume          =   29549.5915 (a.u.)^3
     number of atoms/cell      =           73
     number of atomic types    =            2
     number of electrons       =       638.00
     number of Kohn-Sham states=          700
     kinetic-energy cutoff     =      30.0000  Ry
     charge density cutoff     =     120.0000  Ry
     Exchange-correlation      = PBE ( 1  4  3  4 0 0)
     Non magnetic calculation with spin-orbit


     celldm(1)=  30.046646  celldm(2)=   0.000000  celldm(3)=   0.000000
     celldm(4)=   0.000000  celldm(5)=   0.000000  celldm(6)=   0.000000

     crystal axes: (cart. coord. in units of alat)
               a(1) = (   1.000000   0.000000   0.000000 )  
               a(2) = (  -0.500000   0.866025   0.000000 )  
               a(3) = (   0.000000   0.000000   1.257862 )  

     reciprocal axes: (cart. coord. in units 2 pi/alat)
               b(1) = (  1.000000  0.577350  0.000000 )  
               b(2) = (  0.000000  1.154701  0.000000 )  
               b(3) = (  0.000000  0.000000  0.795000 )  


     PseudoPot. # 1 for S  read from file:
     /ptmp/alaa/qe/2/pseudo/S_ONCV_PBE_FR-1.1.upf
     MD5 check sum: 520a35214b8921ef5a3e305e16abb38a
     Pseudo is Norm-conserving, Zval =  6.0
     Generated using ONCVPSP code by D. R. Hamann
     Using radial grid of  602 points,  6 beta functions with: 
                l(1) =   0
                l(2) =   0
                l(3) =   1
                l(4) =   1
                l(5) =   1
                l(6) =   1

     PseudoPot. # 2 for Mo read from file:
     /ptmp/alaa/qe/2/pseudo/Mo_ONCV_PBE_FR-1.0.upf
     MD5 check sum: 05288ac22f87858946b79311c37e479e
     Pseudo is Norm-conserving, Zval = 14.0
     Generated using ONCVPSP code by D. R. Hamann
     Using radial grid of  602 points, 10 beta functions with: 
                l(1) =   0
                l(2) =   0
                l(3) =   1
                l(4) =   1
                l(5) =   1
                l(6) =   1
                l(7) =   2
                l(8) =   2
                l(9) =   2
               l(10) =   2

     atomic species   valence    mass     pseudopotential
        S              6.00    16.00000     S ( 1.00)
        Mo            14.00    42.00000     Mo( 1.00)

     No symmetry found



   Cartesian axes

     site n.     atom                  positions (alat units)
         1           Mo  tau(   1) = (   0.1003610   0.0579686   0.1932390  )
         2           S   tau(   2) = (   0.0000007   0.1156657   0.2912434  )
         3           S   tau(   3) = (   0.0000007   0.1156657   0.0952346  )
         4           Mo  tau(   4) = (  -0.0000011   0.2311227   0.1932390  )
         5           S   tau(   5) = (  -0.1014444   0.2882743   0.2911536  )
         6           S   tau(   6) = (  -0.1014444   0.2882743   0.0953244  )
         7           Mo  tau(   7) = (  -0.1009082   0.4036425   0.1932390  )
         8           S   tau(   8) = (  -0.2017227   0.4609126   0.2909206  )
         9           S   tau(   9) = (  -0.2017227   0.4609126   0.0955574  )
        10           Mo  tau(  10) = (  -0.2009142   0.5768564   0.1932390  )
        11           S   tau(  11) = (  -0.3010906   0.6340750   0.2911538  )
        12           S   tau(  12) = (  -0.3010906   0.6340750   0.0953242  )
        13           Mo  tau(  13) = (  -0.2998663   0.7505016   0.1932390  )
        14           S   tau(  14) = (  -0.3998511   0.8082305   0.2912433  )
        15           S   tau(  15) = (  -0.3998511   0.8082305   0.0952347  )
        16           Mo  tau(  16) = (   0.3011554   0.0599915   0.1932390  )
        17           S   tau(  17) = (   0.2007920   0.1159491   0.2912754  )
        18           S   tau(  18) = (   0.2007920   0.1159491   0.0952026  )
        19           Mo  tau(  19) = (   0.2025209   0.2308478   0.1932390  )
        20           S   tau(  20) = (   0.1014452   0.2882720   0.2911535  )
        21           S   tau(  21) = (   0.1014452   0.2882720   0.0953244  )
        22           Mo  tau(  22) = (   0.1009074   0.4036398   0.1932390  )
        23           S   tau(  23) = (   0.0000013   0.4614519   0.2909438  )
        24           S   tau(  24) = (   0.0000013   0.4614519   0.0955342  )
        25           Mo  tau(  25) = (  -0.0000012   0.5773748   0.1932390  )
        26           S   tau(  26) = (  -0.1003926   0.6353350   0.2909437  )
        27           S   tau(  27) = (  -0.1003926   0.6353350   0.0955343  )
        28           Mo  tau(  28) = (  -0.1000084   0.7516278   0.1932390  )
        29           S   tau(  29) = (  -0.1996490   0.8097736   0.2911542  )
        30           S   tau(  30) = (  -0.1996490   0.8097736   0.0953238  )
        31           Mo  tau(  31) = (   0.4999954   0.0613809   0.1932390  )
        32           S   tau(  32) = (   0.4027198   0.1223617   0.2910161  )
        33           S   tau(  33) = (   0.4027198   0.1223617   0.0954619  )
        34           Mo  tau(  34) = (   0.4094892   0.2364367   0.1932390  )
        35           S   tau(  35) = (   0.3073226   0.2876149   0.2910166  )
        36           S   tau(  36) = (   0.3073226   0.2876149   0.0954614  )
        37           Mo  tau(  37) = (   0.3031531   0.4023509   0.1932390  )
        38           S   tau(  38) = (   0.2017281   0.4609081   0.2909196  )
        39           S   tau(  39) = (   0.2017281   0.4609081   0.0955584  )
        40           Mo  tau(  40) = (   0.2009139   0.5768544   0.1932390  )
        41           S   tau(  41) = (   0.1003936   0.6353342   0.2909437  )
        42           S   tau(  42) = (   0.1003936   0.6353342   0.0955343  )
        43           Mo  tau(  43) = (   0.1000037   0.7516279   0.1932390  )
        44           S   tau(  44) = (  -0.0000013   0.8102974   0.2909214  )
        45           S   tau(  45) = (  -0.0000013   0.8102974   0.0955566  )
        46           Mo  tau(  46) = (   0.6988375   0.0599980   0.1932390  )
        47           S   tau(  47) = (   0.5972740   0.1223701   0.2910148  )
        48           S   tau(  48) = (   0.5972740   0.1223701   0.0954631  )
        49           Mo  tau(  49) = (   0.5904967   0.2364464   0.1932390  )
        50           Mo  tau(  50) = (   0.5000015   0.3932129   0.1932390  )
        51           S   tau(  51) = (   0.4046003   0.4561081   0.2910172  )
        52           S   tau(  52) = (   0.4046003   0.4561081   0.0954608  )
        53           Mo  tau(  53) = (   0.4013640   0.5752504   0.1932390  )
        54           S   tau(  54) = (   0.3010949   0.6340732   0.2911531  )
        55           S   tau(  55) = (   0.3010949   0.6340732   0.0953249  )
        56           Mo  tau(  56) = (   0.2998653   0.7505023   0.1932390  )
        57           S   tau(  57) = (   0.1996478   0.8097766   0.2911535  )
        58           S   tau(  58) = (   0.1996478   0.8097766   0.0953245  )
        59           Mo  tau(  59) = (   0.8996376   0.0579702   0.1932390  )
        60           S   tau(  60) = (   0.7992067   0.1159528   0.2912752  )
        61           S   tau(  61) = (   0.7992067   0.1159528   0.0952028  )
        62           Mo  tau(  62) = (   0.7974765   0.2308523   0.1932390  )
        63           S   tau(  63) = (   0.6926749   0.2876196   0.2910145  )
        64           S   tau(  64) = (   0.6926749   0.2876196   0.0954635  )
        65           Mo  tau(  65) = (   0.6968528   0.4023596   0.1932390  )
        66           S   tau(  66) = (   0.5954067   0.4561132   0.2910164  )
        67           S   tau(  67) = (   0.5954067   0.4561132   0.0954616  )
        68           Mo  tau(  68) = (   0.5986405   0.5752551   0.1932390  )
        69           S   tau(  69) = (   0.5000025   0.6341998   0.2912756  )
        70           S   tau(  70) = (   0.5000025   0.6341998   0.0952024  )
        71           Mo  tau(  71) = (   0.5000007   0.7501651   0.1932390  )
        72           S   tau(  72) = (   0.3998537   0.8082312   0.2912434  )
        73           S   tau(  73) = (   0.3998537   0.8082312   0.0952346  )

     number of k points=    56
                       cart. coord. in units 2pi/alat
        k(    1) = (   0.0000000   0.0000000   0.0000000), wk =   0.0178571
        k(    2) = (   0.0454550   0.0262435   0.0000000), wk =   0.0178571
        k(    3) = (   0.0909090   0.0524863   0.0000000), wk =   0.0178571
        k(    4) = (   0.1363640   0.0787298   0.0000000), wk =   0.0178571
        k(    5) = (   0.1818180   0.1049727   0.0000000), wk =   0.0178571
        k(    6) = (   0.2272730   0.1312161   0.0000000), wk =   0.0178571
        k(    7) = (   0.2727270   0.1574590   0.0000000), wk =   0.0178571
        k(    8) = (   0.3181820   0.1837025   0.0000000), wk =   0.0178571
        k(    9) = (   0.3636360   0.2099453   0.0000000), wk =   0.0178571
        k(   10) = (   0.4090910   0.2361888   0.0000000), wk =   0.0178571
        k(   11) = (   0.4545450   0.2624317   0.0000000), wk =   0.0178571
        k(   12) = (   0.5000000   0.2886751   0.0000000), wk =   0.0178571
        k(   13) = (   0.4722220   0.3367880   0.0000000), wk =   0.0178571
        k(   14) = (   0.4444440   0.3848998   0.0000000), wk =   0.0178571
        k(   15) = (   0.4166670   0.4330133   0.0000000), wk =   0.0178571
        k(   16) = (   0.3888890   0.4811250   0.0000000), wk =   0.0178571
        k(   17) = (   0.3611110   0.5292379   0.0000000), wk =   0.0178571
        k(   18) = (   0.3333330  -0.5773508   0.0000000), wk =   0.0178571
        k(   19) = (   0.3076920  -0.5329393   0.0000000), wk =   0.0178571
        k(   20) = (   0.2820510  -0.4885278   0.0000000), wk =   0.0178571
        k(   21) = (   0.2564100  -0.4441163   0.0000000), wk =   0.0178571
        k(   22) = (   0.2307690  -0.3997036   0.0000000), wk =   0.0178571
        k(   23) = (   0.2051280  -0.3552921   0.0000000), wk =   0.0178571
        k(   24) = (   0.1794870  -0.3108806   0.0000000), wk =   0.0178571
        k(   25) = (   0.1538460  -0.2664691   0.0000000), wk =   0.0178571
        k(   26) = (   0.1282050  -0.2220576   0.0000000), wk =   0.0178571
        k(   27) = (   0.1025640  -0.1776461   0.0000000), wk =   0.0178571
        k(   28) = (   0.0769230  -0.1332345   0.0000000), wk =   0.0178571
        k(   29) = (   0.0512820  -0.0888230   0.0000000), wk =   0.0178571
        k(   30) = (   0.0256410  -0.0444115   0.0000000), wk =   0.0178571
        k(   31) = (  -0.3333330   0.5773508   0.0000000), wk =   0.0178571
        k(   32) = (  -0.3589740   0.5329393   0.0000000), wk =   0.0178571
        k(   33) = (  -0.3846150   0.4885278   0.0000000), wk =   0.0178571
        k(   34) = (  -0.4102560   0.4441163   0.0000000), wk =   0.0178571
        k(   35) = (  -0.4358970   0.3997048   0.0000000), wk =   0.0178571
        k(   36) = (  -0.4615380   0.3552933   0.0000000), wk =   0.0178571
        k(   37) = (  -0.4871790   0.3108818   0.0000000), wk =   0.0178571
        k(   38) = (  -0.5128210   0.2664685   0.0000000), wk =   0.0178571
        k(   39) = (  -0.5384620   0.2220570   0.0000000), wk =   0.0178571
        k(   40) = (  -0.5641030   0.1776455   0.0000000), wk =   0.0178571
        k(   41) = (  -0.5897440   0.1332340   0.0000000), wk =   0.0178571
        k(   42) = (  -0.6153850   0.0888225   0.0000000), wk =   0.0178571
        k(   43) = (  -0.6410260   0.0444109   0.0000000), wk =   0.0178571
        k(   44) = (   0.3333330   0.5773497   0.0000000), wk =   0.0178571
        k(   45) = (   0.3076920   0.5329382   0.0000000), wk =   0.0178571
        k(   46) = (   0.2820510   0.4885267   0.0000000), wk =   0.0178571
        k(   47) = (   0.2564100   0.4441151   0.0000000), wk =   0.0178571
        k(   48) = (   0.2307690   0.3997036   0.0000000), wk =   0.0178571
        k(   49) = (   0.2051280   0.3552921   0.0000000), wk =   0.0178571
        k(   50) = (   0.1794870   0.3108806   0.0000000), wk =   0.0178571
        k(   51) = (   0.1538460   0.2664691   0.0000000), wk =   0.0178571
        k(   52) = (   0.1282050   0.2220576   0.0000000), wk =   0.0178571
        k(   53) = (   0.1025640   0.1776461   0.0000000), wk =   0.0178571
        k(   54) = (   0.0769230   0.1332345   0.0000000), wk =   0.0178571
        k(   55) = (   0.0512820   0.0888230   0.0000000), wk =   0.0178571
        k(   56) = (   0.0256410   0.0444115   0.0000000), wk =   0.0178571

     Dense  grid:   656009 G-vectors     FFT dimensions: ( 108, 108, 135)

     Estimated max dynamical RAM per process >     786.05 MB

     Estimated total dynamical RAM >     122.82 GB

     The potential is recalculated from file :
     ./unfold.save/charge-density

     Starting wfcs are random

     Band Structure Calculation
     Davidson diagonalization with overlap
     c_bands:  6 eigenvalues not converged
     c_bands:  1 eigenvalues not converged
     c_bands:  2 eigenvalues not converged
     c_bands:  1 eigenvalues not converged
     c_bands:  1 eigenvalues not converged
     c_bands:  1 eigenvalues not converged

     ethr =  1.57E-10,  avg # of iterations = 50.9

     total cpu time spent up to now is     9412.9 secs

     End of band structure calculation

          k = 0.0000 0.0000 0.0000 ( 81851 PWs)   bands (ev):

   -61.9340 -61.9340 -61.9311 -61.9311 -61.9299 -61.9299 -61.9214 -61.9214
   -61.9138 -61.9138 -61.9134 -61.9134 -61.9129 -61.9129 -61.9030 -61.9030
   -61.9027 -61.9027 -61.8984 -61.8984 -61.8977 -61.8977 -61.8971 -61.8971
   -61.8949 -61.8949 -61.8944 -61.8944 -61.8931 -61.8931 -61.8836 -61.8836
   -61.8662 -61.8662 -61.8580 -61.8580 -61.8566 -61.8566 -61.8537 -61.8537
   -61.8474 -61.8474 -61.8465 -61.8465 -61.8435 -61.8435 -61.8249 -61.8249
   -61.8212 -61.8212 -37.7925 -37.7925 -37.7891 -37.7891 -37.7862 -37.7862
   -37.7770 -37.7770 -37.7725 -37.7725 -37.7649 -37.7649 -37.7629 -37.7629
   -37.7568 -37.7568 -37.7526 -37.7526 -37.7477 -37.7477 -37.7471 -37.7471
   -37.7378 -37.7378 -37.7303 -37.7303 -37.7288 -37.7288 -37.7139 -37.7139
   -37.7034 -37.7034 -37.6989 -37.6989 -37.6895 -37.6895 -37.6889 -37.6889
   -37.6815 -37.6815 -37.6799 -37.6799 -37.6567 -37.6567 -37.6534 -37.6534
   -37.6506 -37.6506 -37.5909 -37.5909 -35.3906 -35.3906 -35.3813 -35.3813
   -35.3785 -35.3785 -35.3703 -35.3703 -35.3628 -35.3628 -35.3535 -35.3535
   -35.3504 -35.3504 -35.3492 -35.3492 -35.3478 -35.3478 -35.3397 -35.3397
   -35.3389 -35.3389 -35.3220 -35.3220 -35.3107 -35.3107 -35.3053 -35.3053
   -35.3049 -35.3049 -35.2976 -35.2976 -35.2868 -35.2868 -35.2694 -35.2694
   -35.2576 -35.2576 -35.2551 -35.2551 -35.2510 -35.2510 -35.2455 -35.2455
   -35.2379 -35.2379 -35.2306 -35.2306 -35.2296 -35.2296 -35.2260 -35.2260
   -35.2258 -35.2258 -35.2196 -35.2196 -35.2105 -35.2105 -35.2098 -35.2098
   -35.2064 -35.2064 -35.2007 -35.2007 -35.1982 -35.1982 -35.1957 -35.1957
   -35.1842 -35.1842 -35.1805 -35.1805 -35.1801 -35.1801 -35.1736 -35.1736
   -35.1717 -35.1717 -35.1681 -35.1681 -35.1636 -35.1636 -35.1604 -35.1604
   -35.1544 -35.1544 -35.1504 -35.1504 -35.1482 -35.1482 -35.1266 -35.1266
   -35.1099 -35.1099 -35.0813 -35.0813 -35.0285 -35.0285 -34.9357 -34.9357
   -15.1133 -15.1133 -14.6210 -14.6210 -14.6201 -14.6201 -14.5937 -14.5937
   -14.5751 -14.5751 -14.5746 -14.5746 -14.4630 -14.4630 -13.8285 -13.8285
   -13.8277 -13.8277 -13.8266 -13.8266 -13.7696 -13.7696 -13.7692 -13.7692
   -13.7278 -13.7278 -13.6569 -13.6569 -13.6543 -13.6543 -13.6533 -13.6533
   -13.6170 -13.6170 -13.5874 -13.5874 -13.5771 -13.5771 -13.5766 -13.5766
   -13.5540 -13.5540 -13.5537 -13.5537 -13.5352 -13.5352 -13.5296 -13.5296
   -13.5294 -13.5294 -13.3387 -13.3387 -13.3373 -13.3373 -13.3203 -13.3203
   -13.2621 -13.2621 -13.2619 -13.2619 -13.2285 -13.2285 -13.2246 -13.2246
   -13.1990 -13.1990 -13.1989 -13.1989 -13.1924 -13.1924 -13.1844 -13.1844
   -13.1800 -13.1800 -13.1797 -13.1797 -13.1739 -13.1739 -13.1577 -13.1577
   -13.1282 -13.1282 -13.1177 -13.1177 -13.0844 -13.0844 -13.0147 -13.0147
   -13.0137 -13.0137 -12.9944 -12.9944 -12.9933 -12.9933 -12.9839 -12.9839
    -6.7121  -6.7121  -6.6592  -6.6592  -6.6053  -6.6053  -6.6051  -6.6051
    -6.5832  -6.5832  -6.4870  -6.4870  -6.4860  -6.4860  -6.3107  -6.3107
    -6.2811  -6.2811  -6.2558  -6.2558  -6.2556  -6.2556  -6.2340  -6.2340
    -6.2175  -6.2175  -6.2155  -6.2155  -6.2136  -6.2136  -6.1872  -6.1872
    -6.1651  -6.1651  -6.1523  -6.1523  -6.1328  -6.1328  -6.1316  -6.1316
    -6.1261  -6.1261  -6.1190  -6.1190  -6.1172  -6.1172  -6.1060  -6.1060
    -6.0995  -6.0995  -6.0967  -6.0967  -6.0956  -6.0956  -6.0716  -6.0716
    -5.9449  -5.9449  -5.7679  -5.7679  -5.7670  -5.7670  -5.7243  -5.7243
    -5.5679  -5.5679  -5.5674  -5.5674  -5.5545  -5.5545  -5.4963  -5.4963
    -5.4957  -5.4957  -5.3166  -5.3166  -5.2620  -5.2620  -5.2465  -5.2465
    -5.2144  -5.2144  -5.0743  -5.0743  -5.0676  -5.0676  -5.0592  -5.0592
    -5.0517  -5.0517  -5.0496  -5.0496  -5.0216  -5.0216  -5.0045  -5.0045
    -5.0016  -5.0016  -4.9812  -4.9812  -4.9806  -4.9806  -4.9796  -4.9796
    -4.9741  -4.9741  -4.9230  -4.9230  -4.9214  -4.9214  -4.7976  -4.7976
    -4.7880  -4.7880  -4.7564  -4.7564  -4.7374  -4.7374  -4.7328  -4.7328
    -4.7281  -4.7281  -4.6627  -4.6627  -4.6467  -4.6467  -4.6457  -4.6457
    -4.4095  -4.4095  -4.3961  -4.3961  -4.3940  -4.3940  -4.3727  -4.3727
    -4.3714  -4.3714  -4.3190  -4.3190  -4.3156  -4.3156  -4.3143  -4.3143
    -4.2510  -4.2510  -4.2413  -4.2413  -4.2395  -4.2395  -4.2197  -4.2197
    -4.1915  -4.1915  -4.1880  -4.1880  -4.1660  -4.1660  -4.1538  -4.1538
    -4.1534  -4.1534  -4.1322  -4.1322  -4.1267  -4.1267  -4.1186  -4.1186
    -4.0618  -4.0618  -4.0603  -4.0603  -4.0576  -4.0576  -4.0514  -4.0514
    -3.8978  -3.8978  -3.8549  -3.8549  -3.8354  -3.8354  -3.7366  -3.7366
    -3.6975  -3.6975  -3.6950  -3.6950  -3.5566  -3.5566  -3.5277  -3.5277
    -3.5031  -3.5031  -3.5000  -3.5000  -3.4928  -3.4928  -3.3155  -3.3155
    -3.3088  -3.3088  -3.3078  -3.3078  -3.3010  -3.3010  -3.2864  -3.2864
    -3.2483  -3.2483  -3.2323  -3.2323  -3.2257  -3.2257  -3.2078  -3.2078
    -3.1767  -3.1767  -3.1764  -3.1764  -3.1695  -3.1695  -3.1056  -3.1056
    -3.0947  -3.0947  -3.0809  -3.0809  -2.9396  -2.9396  -2.9388  -2.9388
    -2.9170  -2.9170  -2.9078  -2.9078  -2.8779  -2.8779  -2.8543  -2.8543
    -2.8523  -2.8523  -2.8255  -2.8255  -2.8228  -2.8228  -2.7989  -2.7989
    -2.7551  -2.7551  -2.7045  -2.7045  -2.6553  -2.6553  -2.5957  -2.5957
    -2.5903  -2.5903  -2.5486  -2.5486  -2.5142  -2.5142  -2.4783  -2.4783
    -2.3059  -2.3059  -2.2971  -2.2971  -2.2824  -2.2824  -2.2663  -2.2663
    -2.2594  -2.2594  -2.2127  -2.2127  -2.2071  -2.2071  -2.2063  -2.2063
    -2.1968  -2.1968  -2.1954  -2.1954  -2.1746  -2.1746  -2.1739  -2.1739
    -2.1374  -2.1374  -2.0143  -2.0143  -1.9955  -1.9955  -1.9463  -1.9463
    -1.9042  -1.9042  -1.9004  -1.9004  -1.8984  -1.8984  -1.8799  -1.8799
    -1.8412  -1.8412  -1.8085  -1.8085  -1.7882  -1.7882  -1.7419  -1.7419
    -1.6109  -1.6109  -1.6002  -1.6002  -1.5176  -1.5176  -1.4974  -1.4974
    -1.4724  -1.4724  -1.4526  -1.4526  -1.4521  -1.4521  -1.3732  -1.3732
    -1.3498  -1.3498  -1.3328  -1.3328  -1.2546  -1.2546  -1.2185  -1.2185
    -1.2128  -1.2128  -1.0945  -1.0945  -0.9585  -0.9585   0.0775   0.0775
     0.1598   0.1598   0.6990   0.6990   0.7178   0.7178   0.8992   0.8992
     0.8999   0.8999   0.9182   0.9182   0.9464   0.9464   0.9524   0.9524
     0.9528   0.9528   0.9752   0.9752   0.9971   0.9971   1.0077   1.0077
     1.0286   1.0286   1.0466   1.0466   1.0699   1.0699   1.1087   1.1087
     1.1417   1.1417   1.1423   1.1423   1.1514   1.1514   1.1846   1.1846
     1.1872   1.1872   1.2099   1.2099   1.2211   1.2211   1.2643   1.2643
     1.3078   1.3078   1.3174   1.3174   1.3314   1.3314   1.4168   1.4168
     1.4202   1.4202   1.4221   1.4221

          k = 0.0455 0.0262 0.0000 ( 81889 PWs)   bands (ev):

   -61.9341 -61.9341 -61.9311 -61.9311 -61.9299 -61.9299 -61.9214 -61.9214
   -61.9140 -61.9140 -61.9135 -61.9135 -61.9126 -61.9126 -61.9030 -61.9030
   -61.9027 -61.9027 -61.8984 -61.8984 -61.8978 -61.8978 -61.8971 -61.8971
   -61.8949 -61.8949 -61.8944 -61.8944 -61.8931 -61.8931 -61.8836 -61.8836
   -61.8662 -61.8662 -61.8580 -61.8580 -61.8566 -61.8566 -61.8537 -61.8537
   -61.8474 -61.8474 -61.8465 -61.8465 -61.8435 -61.8435 -61.8249 -61.8249
   -61.8212 -61.8212 -37.7925 -37.7925 -37.7891 -37.7890 -37.7863 -37.7862
   -37.7771 -37.7770 -37.7725 -37.7725 -37.7651 -37.7649 -37.7631 -37.7629
   -37.7568 -37.7568 -37.7527 -37.7525 -37.7481 -37.7476 -37.7472 -37.7466
   -37.7378 -37.7377 -37.7304 -37.7301 -37.7289 -37.7286 -37.7140 -37.7140
   -37.7033 -37.7033 -37.6989 -37.6988 -37.6901 -37.6897 -37.6889 -37.6887
   -37.6816 -37.6815 -37.6798 -37.6798 -37.6569 -37.6566 -37.6538 -37.6532
   -37.6505 -37.6503 -37.5910 -37.5910 -35.3906 -35.3905 -35.3817 -35.3814
   -35.3784 -35.3782 -35.3703 -35.3703 -35.3629 -35.3628 -35.3543 -35.3541
   -35.3509 -35.3503 -35.3490 -35.3486 -35.3470 -35.3470 -35.3404 -35.3403
   -35.3383 -35.3382 -35.3219 -35.3219 -35.3112 -35.3110 -35.3060 -35.3057
   -35.3051 -35.3048 -35.2971 -35.2968 -35.2865 -35.2865 -35.2695 -35.2694
   -35.2587 -35.2584 -35.2546 -35.2545 -35.2511 -35.2508 -35.2455 -35.2455
   -35.2379 -35.2379 -35.2309 -35.2306 -35.2296 -35.2294 -35.2264 -35.2264
   -35.2255 -35.2254 -35.2193 -35.2193 -35.2112 -35.2110 -35.2094 -35.2092
   -35.2063 -35.2063 -35.2008 -35.2007 -35.1985 -35.1983 -35.1956 -35.1952
   -35.1845 -35.1841 -35.1807 -35.1806 -35.1803 -35.1797 -35.1738 -35.1736
   -35.1720 -35.1718 -35.1683 -35.1681 -35.1639 -35.1638 -35.1604 -35.1604
   -35.1546 -35.1541 -35.1508 -35.1507 -35.1480 -35.1474 -35.1264 -35.1263
   -35.1099 -35.1098 -35.0814 -35.0814 -35.0285 -35.0285 -34.9357 -34.9357
   -15.1123 -15.1123 -14.6384 -14.6383 -14.6288 -14.6288 -14.6075 -14.6075
   -14.5646 -14.5646 -14.5463 -14.5463 -14.4573 -14.4573 -13.8478 -13.8477
   -13.8301 -13.8299 -13.8270 -13.8270 -13.7837 -13.7836 -13.7576 -13.7576
   -13.7069 -13.7069 -13.6585 -13.6585 -13.6558 -13.6556 -13.6541 -13.6540
   -13.6140 -13.6140 -13.5949 -13.5949 -13.5757 -13.5757 -13.5702 -13.5702
   -13.5673 -13.5673 -13.5637 -13.5637 -13.5446 -13.5446 -13.5193 -13.5193
   -13.5033 -13.5033 -13.3408 -13.3406 -13.3391 -13.3389 -13.3202 -13.3202
   -13.2665 -13.2665 -13.2606 -13.2606 -13.2270 -13.2269 -13.2229 -13.2228
   -13.2018 -13.2018 -13.2011 -13.2011 -13.1939 -13.1939 -13.1876 -13.1876
   -13.1775 -13.1775 -13.1753 -13.1752 -13.1736 -13.1736 -13.1568 -13.1567
   -13.1305 -13.1303 -13.1157 -13.1155 -13.0846 -13.0846 -13.0163 -13.0163
   -13.0148 -13.0148 -12.9946 -12.9945 -12.9934 -12.9932 -12.9830 -12.9830
    -6.7166  -6.7166  -6.6588  -6.6588  -6.6065  -6.6064  -6.6060  -6.6060
    -6.5791  -6.5791  -6.4841  -6.4840  -6.4805  -6.4804  -6.3261  -6.3261
    -6.2838  -6.2838  -6.2698  -6.2698  -6.2512  -6.2511  -6.2288  -6.2287
    -6.2263  -6.2263  -6.2128  -6.2128  -6.2059  -6.2059  -6.1892  -6.1891
    -6.1596  -6.1595  -6.1487  -6.1483  -6.1416  -6.1412  -6.1373  -6.1372
    -6.1285  -6.1285  -6.1127  -6.1125  -6.1063  -6.1061  -6.1020  -6.1020
    -6.0986  -6.0986  -6.0946  -6.0945  -6.0920  -6.0920  -6.0674  -6.0674
    -5.9438  -5.9438  -5.7681  -5.7680  -5.7655  -5.7655  -5.7286  -5.7286
    -5.5730  -5.5729  -5.5717  -5.5716  -5.5587  -5.5587  -5.4935  -5.4935
    -5.4852  -5.4852  -5.3300  -5.3300  -5.2957  -5.2956  -5.2512  -5.2512
    -5.1811  -5.1810  -5.0735  -5.0735  -5.0597  -5.0596  -5.0521  -5.0520
    -5.0501  -5.0500  -5.0468  -5.0467  -5.0253  -5.0252  -5.0036  -5.0034
    -5.0006  -5.0005  -4.9848  -4.9848  -4.9786  -4.9786  -4.9752  -4.9750
    -4.9712  -4.9710  -4.9216  -4.9216  -4.9198  -4.9198  -4.8000  -4.7999
    -4.7906  -4.7906  -4.7588  -4.7588  -4.7409  -4.7409  -4.7316  -4.7315
    -4.7240  -4.7239  -4.6920  -4.6920  -4.6486  -4.6485  -4.6166  -4.6166
    -4.4085  -4.4084  -4.3959  -4.3958  -4.3930  -4.3929  -4.3712  -4.3712
    -4.3671  -4.3671  -4.3207  -4.3207  -4.3147  -4.3146  -4.3098  -4.3097
    -4.2793  -4.2793  -4.2518  -4.2518  -4.2467  -4.2466  -4.2254  -4.2254
    -4.2010  -4.2010  -4.1733  -4.1733  -4.1610  -4.1610  -4.1531  -4.1528
    -4.1472  -4.1470  -4.1309  -4.1309  -4.1204  -4.1204  -4.0943  -4.0943
    -4.0660  -4.0660  -4.0614  -4.0612  -4.0525  -4.0523  -4.0494  -4.0494
    -3.9233  -3.9232  -3.8846  -3.8846  -3.8520  -3.8519  -3.7239  -3.7239
    -3.6881  -3.6881  -3.6585  -3.6584  -3.5507  -3.5507  -3.5222  -3.5222
    -3.5079  -3.5078  -3.5038  -3.5038  -3.4969  -3.4968  -3.3398  -3.3398
    -3.3186  -3.3185  -3.3120  -3.3119  -3.2821  -3.2820  -3.2763  -3.2763
    -3.2534  -3.2533  -3.2394  -3.2393  -3.2231  -3.2230  -3.2099  -3.2098
    -3.1900  -3.1900  -3.1705  -3.1705  -3.1396  -3.1396  -3.1051  -3.1051
    -3.0941  -3.0941  -3.0826  -3.0826  -2.9400  -2.9400  -2.9372  -2.9372
    -2.9162  -2.9162  -2.9056  -2.9056  -2.8815  -2.8814  -2.8530  -2.8530
    -2.8502  -2.8501  -2.8248  -2.8247  -2.8208  -2.8208  -2.8027  -2.8026
    -2.7570  -2.7570  -2.7042  -2.7042  -2.6584  -2.6584  -2.5932  -2.5932
    -2.5865  -2.5865  -2.5461  -2.5460  -2.5151  -2.5150  -2.4790  -2.4790
    -2.3156  -2.3156  -2.2981  -2.2980  -2.2811  -2.2811  -2.2753  -2.2753
    -2.2600  -2.2600  -2.2191  -2.2190  -2.2162  -2.2161  -2.2081  -2.2079
    -2.1962  -2.1961  -2.1880  -2.1879  -2.1692  -2.1691  -2.1671  -2.1671
    -2.1418  -2.1417  -2.0156  -2.0156  -1.9956  -1.9955  -1.9451  -1.9450
    -1.9152  -1.9151  -1.9059  -1.9059  -1.8877  -1.8875  -1.8732  -1.8732
    -1.8336  -1.8336  -1.8083  -1.8082  -1.7853  -1.7853  -1.7402  -1.7402
    -1.6115  -1.6114  -1.6046  -1.6046  -1.5197  -1.5196  -1.5058  -1.5054
    -1.4855  -1.4854  -1.4580  -1.4577  -1.4270  -1.4268  -1.3778  -1.3777
    -1.3483  -1.3481  -1.3293  -1.3291  -1.2540  -1.2538  -1.2209  -1.2209
    -1.2102  -1.2100  -1.0942  -1.0942  -0.9591  -0.9591   0.0773   0.0773
     0.1596   0.1596   0.6991   0.6991   0.7179   0.7180   0.8804   0.8805
     0.8993   0.8995   0.9271   0.9271   0.9374   0.9374   0.9463   0.9465
     0.9627   0.9627   0.9849   0.9853   0.9993   0.9996   1.0159   1.0159
     1.0240   1.0241   1.0506   1.0506   1.0749   1.0750   1.1094   1.1094
     1.1415   1.1415   1.1425   1.1426   1.1498   1.1500   1.1846   1.1847
     1.1876   1.1877   1.2094   1.2095   1.2216   1.2217   1.2658   1.2659
     1.3065   1.3066   1.3181   1.3182   1.3327   1.3329   1.4093   1.4094
     1.4176   1.4176   1.4246   1.4247

          k = 0.0909 0.0525 0.0000 ( 81881 PWs)   bands (ev):

   -61.9340 -61.9340 -61.9311 -61.9311 -61.9300 -61.9300 -61.9214 -61.9214
   -61.9144 -61.9144 -61.9135 -61.9135 -61.9121 -61.9121 -61.9031 -61.9031
   -61.9026 -61.9026 -61.8986 -61.8986 -61.8978 -61.8978 -61.8970 -61.8970
   -61.8949 -61.8949 -61.8944 -61.8944 -61.8931 -61.8931 -61.8836 -61.8836
   -61.8662 -61.8662 -61.8580 -61.8580 -61.8566 -61.8566 -61.8537 -61.8537
   -61.8474 -61.8474 -61.8465 -61.8465 -61.8435 -61.8435 -61.8249 -61.8249
   -61.8212 -61.8212 -37.7924 -37.7924 -37.7891 -37.7890 -37.7864 -37.7862
   -37.7771 -37.7769 -37.7725 -37.7724 -37.7653 -37.7650 -37.7633 -37.7629
   -37.7568 -37.7568 -37.7528 -37.7525 -37.7485 -37.7480 -37.7468 -37.7461
   -37.7378 -37.7378 -37.7304 -37.7299 -37.7287 -37.7283 -37.7142 -37.7142
   -37.7031 -37.7030 -37.6988 -37.6987 -37.6911 -37.6905 -37.6886 -37.6885
   -37.6817 -37.6815 -37.6796 -37.6795 -37.6573 -37.6566 -37.6542 -37.6533
   -37.6501 -37.6498 -37.5910 -37.5910 -35.3907 -35.3905 -35.3823 -35.3819
   -35.3780 -35.3777 -35.3703 -35.3702 -35.3630 -35.3628 -35.3557 -35.3554
   -35.3514 -35.3507 -35.3482 -35.3476 -35.3454 -35.3452 -35.3412 -35.3410
   -35.3374 -35.3373 -35.3217 -35.3217 -35.3122 -35.3120 -35.3069 -35.3066
   -35.3055 -35.3053 -35.2956 -35.2952 -35.2857 -35.2857 -35.2697 -35.2696
   -35.2606 -35.2603 -35.2540 -35.2538 -35.2513 -35.2508 -35.2454 -35.2453
   -35.2379 -35.2378 -35.2313 -35.2310 -35.2294 -35.2293 -35.2270 -35.2269
   -35.2251 -35.2249 -35.2187 -35.2187 -35.2121 -35.2118 -35.2088 -35.2087
   -35.2060 -35.2058 -35.2008 -35.2006 -35.1989 -35.1986 -35.1948 -35.1942
   -35.1848 -35.1842 -35.1812 -35.1809 -35.1801 -35.1792 -35.1740 -35.1736
   -35.1725 -35.1721 -35.1685 -35.1682 -35.1643 -35.1643 -35.1605 -35.1604
   -35.1547 -35.1540 -35.1514 -35.1513 -35.1469 -35.1462 -35.1259 -35.1255
   -35.1099 -35.1096 -35.0818 -35.0817 -35.0285 -35.0285 -34.9358 -34.9358
   -15.1088 -15.1088 -14.6744 -14.6743 -14.6447 -14.6447 -14.6166 -14.6166
   -14.5432 -14.5432 -14.5098 -14.5098 -14.4404 -14.4404 -13.8790 -13.8789
   -13.8573 -13.8572 -13.8256 -13.8256 -13.7887 -13.7887 -13.7434 -13.7434
   -13.6742 -13.6742 -13.6671 -13.6670 -13.6565 -13.6565 -13.6530 -13.6530
   -13.6105 -13.6105 -13.6012 -13.6012 -13.5968 -13.5968 -13.5799 -13.5799
   -13.5715 -13.5715 -13.5532 -13.5532 -13.5403 -13.5403 -13.5016 -13.5016
   -13.4746 -13.4746 -13.3469 -13.3467 -13.3433 -13.3432 -13.3197 -13.3197
   -13.2744 -13.2744 -13.2571 -13.2571 -13.2329 -13.2329 -13.2117 -13.2116
   -13.2093 -13.2093 -13.2050 -13.2050 -13.1952 -13.1952 -13.1902 -13.1902
   -13.1802 -13.1800 -13.1715 -13.1715 -13.1639 -13.1639 -13.1545 -13.1544
   -13.1360 -13.1357 -13.1112 -13.1110 -13.0848 -13.0848 -13.0206 -13.0206
   -13.0172 -13.0172 -12.9958 -12.9957 -12.9927 -12.9926 -12.9803 -12.9803
    -6.7283  -6.7282  -6.6578  -6.6578  -6.6096  -6.6096  -6.6078  -6.6078
    -6.5671  -6.5671  -6.4769  -6.4769  -6.4649  -6.4649  -6.3556  -6.3556
    -6.2962  -6.2962  -6.2908  -6.2908  -6.2492  -6.2491  -6.2411  -6.2411
    -6.2259  -6.2259  -6.2051  -6.2051  -6.1968  -6.1968  -6.1891  -6.1891
    -6.1710  -6.1710  -6.1530  -6.1529  -6.1393  -6.1393  -6.1286  -6.1284
    -6.1192  -6.1190  -6.1116  -6.1113  -6.1028  -6.1026  -6.0932  -6.0932
    -6.0913  -6.0913  -6.0795  -6.0795  -6.0774  -6.0774  -6.0585  -6.0585
    -5.9409  -5.9409  -5.7687  -5.7686  -5.7607  -5.7607  -5.7402  -5.7402
    -5.5923  -5.5923  -5.5868  -5.5868  -5.5537  -5.5537  -5.4890  -5.4890
    -5.4666  -5.4666  -5.3594  -5.3594  -5.3469  -5.3469  -5.2471  -5.2471
    -5.1540  -5.1540  -5.0770  -5.0770  -5.0540  -5.0539  -5.0512  -5.0512
    -5.0356  -5.0356  -5.0259  -5.0259  -5.0120  -5.0120  -5.0016  -5.0013
    -4.9981  -4.9979  -4.9870  -4.9870  -4.9746  -4.9746  -4.9679  -4.9677
    -4.9642  -4.9640  -4.9173  -4.9173  -4.9153  -4.9153  -4.8068  -4.8067
    -4.7975  -4.7975  -4.7667  -4.7666  -4.7481  -4.7481  -4.7342  -4.7341
    -4.7197  -4.7196  -4.7144  -4.7144  -4.6546  -4.6545  -4.5839  -4.5838
    -4.4127  -4.4126  -4.3930  -4.3929  -4.3834  -4.3833  -4.3689  -4.3687
    -4.3590  -4.3590  -4.3310  -4.3308  -4.3203  -4.3202  -4.3107  -4.3106
    -4.2992  -4.2990  -4.2755  -4.2754  -4.2650  -4.2650  -4.2254  -4.2253
    -4.2145  -4.2144  -4.1684  -4.1684  -4.1592  -4.1590  -4.1534  -4.1533
    -4.1448  -4.1448  -4.1100  -4.1100  -4.0983  -4.0983  -4.0719  -4.0719
    -4.0646  -4.0645  -4.0521  -4.0520  -4.0425  -4.0425  -4.0385  -4.0385
    -3.9826  -3.9826  -3.9526  -3.9526  -3.8587  -3.8587  -3.7167  -3.7167
    -3.6632  -3.6632  -3.6070  -3.6069  -3.5346  -3.5345  -3.5225  -3.5225
    -3.5156  -3.5156  -3.5128  -3.5128  -3.4849  -3.4848  -3.3784  -3.3784
    -3.3296  -3.3296  -3.3222  -3.3222  -3.2849  -3.2848  -3.2630  -3.2629
    -3.2546  -3.2546  -3.2381  -3.2380  -3.2267  -3.2266  -3.2130  -3.2129
    -3.1827  -3.1826  -3.1543  -3.1543  -3.1070  -3.1070  -3.1029  -3.1028
    -3.0905  -3.0905  -3.0862  -3.0861  -2.9431  -2.9431  -2.9332  -2.9332
    -2.9120  -2.9120  -2.8996  -2.8996  -2.8886  -2.8885  -2.8507  -2.8506
    -2.8458  -2.8458  -2.8291  -2.8291  -2.8130  -2.8130  -2.8064  -2.8063
    -2.7625  -2.7625  -2.7020  -2.7020  -2.6633  -2.6633  -2.5909  -2.5909
    -2.5775  -2.5775  -2.5401  -2.5401  -2.5160  -2.5159  -2.4799  -2.4798
    -2.3330  -2.3330  -2.3093  -2.3092  -2.2998  -2.2998  -2.2768  -2.2768
    -2.2645  -2.2644  -2.2418  -2.2416  -2.2285  -2.2285  -2.2008  -2.2008
    -2.1967  -2.1965  -2.1807  -2.1805  -2.1586  -2.1584  -2.1544  -2.1543
    -2.1481  -2.1481  -2.0194  -2.0193  -1.9952  -1.9951  -1.9436  -1.9434
    -1.9230  -1.9229  -1.9165  -1.9163  -1.8754  -1.8752  -1.8596  -1.8595
    -1.8176  -1.8175  -1.8054  -1.8053  -1.7768  -1.7768  -1.7353  -1.7352
    -1.6188  -1.6188  -1.6117  -1.6117  -1.5328  -1.5327  -1.5252  -1.5249
    -1.4919  -1.4918  -1.4538  -1.4536  -1.4052  -1.4051  -1.3851  -1.3850
    -1.3468  -1.3466  -1.3191  -1.3189  -1.2521  -1.2516  -1.2247  -1.2246
    -1.2048  -1.2045  -1.0933  -1.0933  -0.9612  -0.9612   0.0766   0.0766
     0.1589   0.1589   0.6995   0.6995   0.7184   0.7184   0.8546   0.8546
     0.8882   0.8882   0.9191   0.9192   0.9352   0.9354   0.9575   0.9578
     0.9716   0.9716   0.9910   0.9911   1.0149   1.0151   1.0205   1.0207
     1.0336   1.0336   1.0566   1.0567   1.0872   1.0873   1.1117   1.1118
     1.1403   1.1404   1.1434   1.1435   1.1475   1.1477   1.1836   1.1837
     1.1889   1.1890   1.2080   1.2082   1.2240   1.2241   1.2701   1.2703
     1.3049   1.3049   1.3192   1.3194   1.3357   1.3359   1.3963   1.3965
     1.4150   1.4150   1.4237   1.4238

          k = 0.1364 0.0787 0.0000 ( 81913 PWs)   bands (ev):

   -61.9340 -61.9340 -61.9311 -61.9311 -61.9300 -61.9300 -61.9214 -61.9214
   -61.9149 -61.9149 -61.9135 -61.9135 -61.9115 -61.9115 -61.9032 -61.9032
   -61.9026 -61.9026 -61.8988 -61.8988 -61.8979 -61.8979 -61.8969 -61.8969
   -61.8949 -61.8949 -61.8944 -61.8944 -61.8931 -61.8931 -61.8836 -61.8836
   -61.8663 -61.8663 -61.8580 -61.8580 -61.8566 -61.8566 -61.8537 -61.8537
   -61.8474 -61.8474 -61.8466 -61.8466 -61.8435 -61.8435 -61.8249 -61.8249
   -61.8212 -61.8212 -37.7924 -37.7924 -37.7891 -37.7890 -37.7865 -37.7862
   -37.7771 -37.7768 -37.7725 -37.7723 -37.7657 -37.7654 -37.7635 -37.7630
   -37.7568 -37.7568 -37.7528 -37.7525 -37.7488 -37.7484 -37.7463 -37.7457
   -37.7379 -37.7379 -37.7303 -37.7297 -37.7282 -37.7278 -37.7145 -37.7144
   -37.7028 -37.7027 -37.6986 -37.6984 -37.6922 -37.6916 -37.6883 -37.6883
   -37.6821 -37.6818 -37.6791 -37.6789 -37.6578 -37.6570 -37.6544 -37.6534
   -37.6495 -37.6492 -37.5910 -37.5910 -35.3909 -35.3906 -35.3830 -35.3825
   -35.3775 -35.3772 -35.3702 -35.3700 -35.3632 -35.3629 -35.3571 -35.3568
   -35.3517 -35.3510 -35.3472 -35.3468 -35.3436 -35.3433 -35.3418 -35.3413
   -35.3365 -35.3363 -35.3214 -35.3214 -35.3136 -35.3135 -35.3076 -35.3075
   -35.3062 -35.3061 -35.2938 -35.2934 -35.2844 -35.2844 -35.2700 -35.2698
   -35.2628 -35.2624 -35.2537 -35.2534 -35.2518 -35.2513 -35.2449 -35.2447
   -35.2380 -35.2379 -35.2318 -35.2316 -35.2293 -35.2292 -35.2276 -35.2275
   -35.2245 -35.2244 -35.2179 -35.2178 -35.2129 -35.2127 -35.2085 -35.2084
   -35.2055 -35.2050 -35.2007 -35.2005 -35.1992 -35.1990 -35.1937 -35.1931
   -35.1852 -35.1844 -35.1818 -35.1815 -35.1798 -35.1786 -35.1743 -35.1739
   -35.1731 -35.1727 -35.1689 -35.1687 -35.1648 -35.1646 -35.1606 -35.1605
   -35.1548 -35.1543 -35.1520 -35.1518 -35.1456 -35.1449 -35.1249 -35.1244
   -35.1097 -35.1093 -35.0824 -35.0823 -35.0285 -35.0285 -34.9358 -34.9358
   -15.1029 -15.1029 -14.7124 -14.7124 -14.6609 -14.6608 -14.6260 -14.6260
   -14.5175 -14.5175 -14.4761 -14.4761 -14.4130 -14.4130 -13.9157 -13.9156
   -13.8930 -13.8929 -13.8234 -13.8234 -13.7878 -13.7877 -13.7324 -13.7324
   -13.6788 -13.6788 -13.6727 -13.6727 -13.6594 -13.6594 -13.6304 -13.6303
   -13.6166 -13.6166 -13.6114 -13.6113 -13.5971 -13.5971 -13.5931 -13.5931
   -13.5652 -13.5652 -13.5376 -13.5376 -13.5304 -13.5304 -13.4825 -13.4825
   -13.4480 -13.4480 -13.3559 -13.3559 -13.3506 -13.3506 -13.3186 -13.3186
   -13.2816 -13.2816 -13.2527 -13.2527 -13.2433 -13.2433 -13.2153 -13.2153
   -13.2111 -13.2111 -13.2055 -13.2054 -13.1968 -13.1968 -13.1891 -13.1890
   -13.1832 -13.1832 -13.1640 -13.1640 -13.1543 -13.1543 -13.1518 -13.1517
   -13.1438 -13.1435 -13.1059 -13.1057 -13.0852 -13.0852 -13.0265 -13.0265
   -13.0210 -13.0210 -12.9987 -12.9986 -12.9915 -12.9915 -12.9768 -12.9767
    -6.7437  -6.7437  -6.6570  -6.6570  -6.6138  -6.6138  -6.6079  -6.6079
    -6.5498  -6.5498  -6.4674  -6.4674  -6.4446  -6.4446  -6.3854  -6.3854
    -6.3240  -6.3240  -6.3005  -6.3005  -6.2582  -6.2581  -6.2504  -6.2504
    -6.2331  -6.2331  -6.2091  -6.2090  -6.1931  -6.1931  -6.1838  -6.1838
    -6.1707  -6.1707  -6.1637  -6.1637  -6.1365  -6.1365  -6.1312  -6.1311
    -6.1091  -6.1091  -6.1016  -6.1016  -6.0869  -6.0867  -6.0807  -6.0807
    -6.0764  -6.0763  -6.0623  -6.0622  -6.0572  -6.0571  -6.0468  -6.0468
    -5.9370  -5.9370  -5.7697  -5.7697  -5.7573  -5.7573  -5.7513  -5.7513
    -5.6186  -5.6186  -5.6068  -5.6068  -5.5465  -5.5465  -5.4921  -5.4921
    -5.4578  -5.4578  -5.4010  -5.4010  -5.3659  -5.3659  -5.2438  -5.2438
    -5.1454  -5.1454  -5.0834  -5.0833  -5.0568  -5.0568  -5.0542  -5.0541
    -5.0409  -5.0408  -5.0014  -5.0011  -4.9969  -4.9967  -4.9847  -4.9847
    -4.9803  -4.9802  -4.9687  -4.9687  -4.9616  -4.9616  -4.9589  -4.9587
    -4.9555  -4.9553  -4.9107  -4.9106  -4.9083  -4.9082  -4.8164  -4.8164
    -4.8085  -4.8084  -4.7820  -4.7820  -4.7576  -4.7576  -4.7510  -4.7509
    -4.7167  -4.7166  -4.7098  -4.7098  -4.6621  -4.6621  -4.5579  -4.5578
    -4.4353  -4.4352  -4.3856  -4.3856  -4.3808  -4.3808  -4.3671  -4.3670
    -4.3628  -4.3627  -4.3372  -4.3371  -4.3196  -4.3196  -4.3090  -4.3089
    -4.2992  -4.2991  -4.2875  -4.2875  -4.2832  -4.2830  -4.2307  -4.2304
    -4.2195  -4.2193  -4.1789  -4.1789  -4.1675  -4.1674  -4.1487  -4.1487
    -4.1359  -4.1358  -4.0912  -4.0911  -4.0860  -4.0858  -4.0723  -4.0722
    -4.0666  -4.0665  -4.0538  -4.0536  -4.0407  -4.0407  -4.0279  -4.0279
    -4.0200  -4.0200  -3.9791  -3.9791  -3.8595  -3.8595  -3.7128  -3.7127
    -3.6569  -3.6569  -3.5846  -3.5846  -3.5443  -3.5443  -3.5424  -3.5423
    -3.5365  -3.5364  -3.4731  -3.4731  -3.4289  -3.4288  -3.4219  -3.4219
    -3.3477  -3.3476  -3.3405  -3.3404  -3.2887  -3.2886  -3.2668  -3.2668
    -3.2572  -3.2572  -3.2262  -3.2260  -3.2167  -3.2166  -3.2046  -3.2044
    -3.1740  -3.1740  -3.1329  -3.1329  -3.1126  -3.1125  -3.0916  -3.0916
    -3.0832  -3.0832  -3.0634  -3.0634  -2.9492  -2.9492  -2.9326  -2.9326
    -2.9031  -2.9030  -2.8958  -2.8958  -2.8870  -2.8870  -2.8507  -2.8506
    -2.8468  -2.8467  -2.8322  -2.8322  -2.8025  -2.8024  -2.8007  -2.8006
    -2.7705  -2.7705  -2.6981  -2.6981  -2.6664  -2.6664  -2.5889  -2.5889
    -2.5716  -2.5716  -2.5392  -2.5391  -2.5147  -2.5146  -2.4776  -2.4775
    -2.3527  -2.3527  -2.3347  -2.3347  -2.3275  -2.3275  -2.2804  -2.2804
    -2.2755  -2.2755  -2.2665  -2.2665  -2.2356  -2.2356  -2.2107  -2.2106
    -2.1868  -2.1867  -2.1724  -2.1722  -2.1664  -2.1664  -2.1452  -2.1451
    -2.1257  -2.1257  -2.0257  -2.0257  -1.9940  -1.9940  -1.9459  -1.9457
    -1.9269  -1.9268  -1.9199  -1.9199  -1.8630  -1.8627  -1.8453  -1.8452
    -1.8110  -1.8109  -1.7881  -1.7881  -1.7637  -1.7637  -1.7276  -1.7275
    -1.6384  -1.6384  -1.6160  -1.6160  -1.5562  -1.5562  -1.5408  -1.5407
    -1.4924  -1.4923  -1.4494  -1.4492  -1.4078  -1.4076  -1.3784  -1.3781
    -1.3453  -1.3451  -1.3058  -1.3055  -1.2502  -1.2496  -1.2261  -1.2261
    -1.1973  -1.1969  -1.0919  -1.0919  -0.9648  -0.9648   0.0755   0.0755
     0.1578   0.1578   0.7000   0.7000   0.7193   0.7193   0.8284   0.8284
     0.8668   0.8668   0.9129   0.9130   0.9399   0.9400   0.9684   0.9685
     0.9825   0.9827   0.9915   0.9915   1.0248   1.0250   1.0374   1.0377
     1.0528   1.0529   1.0646   1.0647   1.1011   1.1013   1.1159   1.1160
     1.1369   1.1371   1.1445   1.1446   1.1476   1.1476   1.1811   1.1812
     1.1896   1.1897   1.2062   1.2065   1.2282   1.2283   1.2754   1.2756
     1.3061   1.3062   1.3198   1.3199   1.3374   1.3376   1.3840   1.3842
     1.4099   1.4101   1.4227   1.4227

          k = 0.1818 0.1050 0.0000 ( 81943 PWs)   bands (ev):

   -61.9340 -61.9340 -61.9311 -61.9311 -61.9301 -61.9301 -61.9213 -61.9213
   -61.9153 -61.9153 -61.9136 -61.9136 -61.9110 -61.9110 -61.9033 -61.9033
   -61.9026 -61.9026 -61.8990 -61.8990 -61.8980 -61.8980 -61.8967 -61.8967
   -61.8949 -61.8949 -61.8943 -61.8943 -61.8931 -61.8931 -61.8836 -61.8836
   -61.8663 -61.8663 -61.8580 -61.8580 -61.8567 -61.8567 -61.8537 -61.8537
   -61.8474 -61.8474 -61.8466 -61.8466 -61.8435 -61.8435 -61.8249 -61.8249
   -61.8212 -61.8212 -37.7923 -37.7923 -37.7891 -37.7889 -37.7866 -37.7863
   -37.7770 -37.7767 -37.7724 -37.7722 -37.7661 -37.7659 -37.7636 -37.7632
   -37.7568 -37.7568 -37.7528 -37.7525 -37.7490 -37.7487 -37.7457 -37.7452
   -37.7381 -37.7380 -37.7300 -37.7295 -37.7276 -37.7272 -37.7148 -37.7148
   -37.7025 -37.7025 -37.6983 -37.6980 -37.6935 -37.6928 -37.6881 -37.6880
   -37.6827 -37.6822 -37.6785 -37.6784 -37.6583 -37.6575 -37.6545 -37.6535
   -37.6489 -37.6487 -37.5910 -37.5910 -35.3911 -35.3908 -35.3835 -35.3830
   -35.3770 -35.3767 -35.3700 -35.3698 -35.3635 -35.3630 -35.3585 -35.3581
   -35.3519 -35.3513 -35.3465 -35.3462 -35.3427 -35.3427 -35.3405 -35.3401
   -35.3357 -35.3354 -35.3212 -35.3211 -35.3151 -35.3150 -35.3084 -35.3084
   -35.3069 -35.3066 -35.2921 -35.2917 -35.2829 -35.2828 -35.2704 -35.2703
   -35.2650 -35.2647 -35.2539 -35.2539 -35.2521 -35.2519 -35.2441 -35.2439
   -35.2383 -35.2383 -35.2323 -35.2323 -35.2291 -35.2289 -35.2280 -35.2279
   -35.2239 -35.2238 -35.2170 -35.2169 -35.2137 -35.2135 -35.2084 -35.2082
   -35.2049 -35.2043 -35.2005 -35.2003 -35.1992 -35.1992 -35.1925 -35.1918
   -35.1856 -35.1848 -35.1827 -35.1822 -35.1794 -35.1782 -35.1748 -35.1746
   -35.1737 -35.1734 -35.1695 -35.1693 -35.1652 -35.1647 -35.1607 -35.1605
   -35.1551 -35.1550 -35.1524 -35.1520 -35.1443 -35.1437 -35.1236 -35.1230
   -35.1094 -35.1088 -35.0832 -35.0831 -35.0285 -35.0285 -34.9359 -34.9359
   -15.0948 -15.0948 -14.7498 -14.7498 -14.6758 -14.6758 -14.6359 -14.6359
   -14.4895 -14.4895 -14.4460 -14.4460 -14.3772 -14.3772 -13.9555 -13.9555
   -13.9298 -13.9297 -13.8202 -13.8202 -13.7849 -13.7849 -13.7319 -13.7319
   -13.6936 -13.6936 -13.6908 -13.6908 -13.6627 -13.6627 -13.6242 -13.6242
   -13.6217 -13.6217 -13.6119 -13.6119 -13.5855 -13.5854 -13.5839 -13.5839
   -13.5570 -13.5570 -13.5213 -13.5213 -13.5148 -13.5148 -13.4631 -13.4631
   -13.4242 -13.4242 -13.3668 -13.3667 -13.3609 -13.3608 -13.3170 -13.3170
   -13.2868 -13.2868 -13.2568 -13.2568 -13.2484 -13.2484 -13.2193 -13.2193
   -13.2169 -13.2168 -13.2157 -13.2157 -13.2003 -13.2001 -13.1831 -13.1831
   -13.1754 -13.1754 -13.1558 -13.1556 -13.1549 -13.1549 -13.1483 -13.1482
   -13.1451 -13.1450 -13.1004 -13.1003 -13.0855 -13.0855 -13.0332 -13.0332
   -13.0256 -13.0256 -13.0029 -13.0028 -12.9901 -12.9901 -12.9729 -12.9729
    -6.7603  -6.7603  -6.6568  -6.6568  -6.6179  -6.6179  -6.6041  -6.6041
    -6.5297  -6.5297  -6.4595  -6.4594  -6.4370  -6.4369  -6.3964  -6.3964
    -6.3480  -6.3480  -6.3109  -6.3108  -6.2736  -6.2736  -6.2610  -6.2610
    -6.2425  -6.2425  -6.2283  -6.2283  -6.1792  -6.1791  -6.1746  -6.1745
    -6.1720  -6.1720  -6.1670  -6.1669  -6.1433  -6.1432  -6.1384  -6.1383
    -6.1039  -6.1038  -6.0856  -6.0855  -6.0657  -6.0654  -6.0650  -6.0650
    -6.0593  -6.0589  -6.0468  -6.0468  -6.0313  -6.0312  -6.0289  -6.0289
    -5.9329  -5.9329  -5.7770  -5.7770  -5.7692  -5.7692  -5.7394  -5.7394
    -5.6478  -5.6478  -5.6321  -5.6321  -5.5448  -5.5448  -5.5177  -5.5177
    -5.4642  -5.4642  -5.4215  -5.4215  -5.3578  -5.3578  -5.2383  -5.2383
    -5.1464  -5.1464  -5.0916  -5.0916  -5.0609  -5.0608  -5.0591  -5.0588
    -5.0445  -5.0444  -5.0038  -5.0036  -4.9949  -4.9948  -4.9773  -4.9773
    -4.9611  -4.9611  -4.9496  -4.9494  -4.9462  -4.9461  -4.9286  -4.9286
    -4.9071  -4.9070  -4.9011  -4.9011  -4.8970  -4.8969  -4.8280  -4.8280
    -4.8256  -4.8256  -4.7983  -4.7983  -4.7685  -4.7685  -4.7619  -4.7618
    -4.7175  -4.7175  -4.7002  -4.7002  -4.6687  -4.6687  -4.5407  -4.5407
    -4.4853  -4.4853  -4.3993  -4.3992  -4.3735  -4.3734  -4.3632  -4.3632
    -4.3448  -4.3448  -4.3394  -4.3394  -4.3160  -4.3159  -4.3133  -4.3130
    -4.3090  -4.3087  -4.2931  -4.2929  -4.2670  -4.2668  -4.2339  -4.2337
    -4.2205  -4.2202  -4.1900  -4.1900  -4.1776  -4.1775  -4.1645  -4.1645
    -4.1430  -4.1430  -4.1082  -4.1081  -4.1013  -4.1013  -4.0767  -4.0764
    -4.0745  -4.0743  -4.0569  -4.0567  -4.0483  -4.0482  -4.0323  -4.0323
    -4.0034  -4.0034  -3.9167  -3.9167  -3.8586  -3.8586  -3.7086  -3.7085
    -3.6659  -3.6658  -3.5866  -3.5866  -3.5731  -3.5730  -3.5676  -3.5675
    -3.5612  -3.5612  -3.4722  -3.4722  -3.4136  -3.4135  -3.3793  -3.3793
    -3.3664  -3.3664  -3.3437  -3.3435  -3.2844  -3.2843  -3.2693  -3.2692
    -3.2627  -3.2627  -3.2100  -3.2098  -3.2027  -3.2026  -3.1898  -3.1898
    -3.1646  -3.1645  -3.1285  -3.1284  -3.1083  -3.1083  -3.0943  -3.0942
    -3.0674  -3.0674  -3.0266  -3.0266  -2.9567  -2.9566  -2.9434  -2.9434
    -2.8921  -2.8915  -2.8892  -2.8887  -2.8736  -2.8735  -2.8612  -2.8612
    -2.8425  -2.8425  -2.8274  -2.8274  -2.7958  -2.7958  -2.7887  -2.7886
    -2.7757  -2.7756  -2.6953  -2.6953  -2.6658  -2.6658  -2.5876  -2.5876
    -2.5705  -2.5705  -2.5451  -2.5451  -2.5178  -2.5178  -2.4698  -2.4698
    -2.3772  -2.3772  -2.3718  -2.3718  -2.3500  -2.3499  -2.3205  -2.3205
    -2.2862  -2.2862  -2.2622  -2.2621  -2.2445  -2.2444  -2.2400  -2.2399
    -2.1743  -2.1743  -2.1698  -2.1697  -2.1583  -2.1581  -2.1323  -2.1321
    -2.1024  -2.1024  -2.0343  -2.0342  -1.9930  -1.9929  -1.9502  -1.9500
    -1.9294  -1.9292  -1.9155  -1.9155  -1.8505  -1.8503  -1.8314  -1.8312
    -1.8088  -1.8088  -1.7656  -1.7655  -1.7481  -1.7480  -1.7184  -1.7183
    -1.6623  -1.6623  -1.6244  -1.6243  -1.5727  -1.5727  -1.5589  -1.5588
    -1.4938  -1.4937  -1.4458  -1.4458  -1.4220  -1.4218  -1.3720  -1.3717
    -1.3406  -1.3404  -1.2937  -1.2934  -1.2512  -1.2508  -1.2199  -1.2197
    -1.1875  -1.1872  -1.0901  -1.0901  -0.9697  -0.9697   0.0740   0.0741
     0.1564   0.1564   0.7006   0.7006   0.7206   0.7206   0.8033   0.8033
     0.8435   0.8435   0.9082   0.9083   0.9516   0.9517   0.9743   0.9744
     0.9871   0.9873   1.0011   1.0012   1.0387   1.0389   1.0524   1.0527
     1.0695   1.0697   1.0784   1.0784   1.1124   1.1127   1.1216   1.1216
     1.1330   1.1333   1.1446   1.1448   1.1506   1.1506   1.1782   1.1783
     1.1904   1.1904   1.2044   1.2047   1.2327   1.2329   1.2778   1.2778
     1.3128   1.3129   1.3201   1.3201   1.3364   1.3366   1.3738   1.3740
     1.4030   1.4033   1.4227   1.4227

          k = 0.2273 0.1312 0.0000 ( 81975 PWs)   bands (ev):

   -61.9339 -61.9339 -61.9311 -61.9311 -61.9302 -61.9302 -61.9213 -61.9213
   -61.9157 -61.9157 -61.9136 -61.9136 -61.9104 -61.9104 -61.9036 -61.9036
   -61.9026 -61.9026 -61.8992 -61.8992 -61.8980 -61.8980 -61.8966 -61.8966
   -61.8948 -61.8948 -61.8943 -61.8943 -61.8931 -61.8931 -61.8836 -61.8836
   -61.8663 -61.8663 -61.8580 -61.8580 -61.8567 -61.8567 -61.8537 -61.8537
   -61.8474 -61.8474 -61.8466 -61.8466 -61.8435 -61.8435 -61.8249 -61.8249
   -61.8212 -61.8212 -37.7922 -37.7922 -37.7891 -37.7889 -37.7867 -37.7863
   -37.7769 -37.7766 -37.7723 -37.7720 -37.7667 -37.7666 -37.7636 -37.7633
   -37.7568 -37.7568 -37.7529 -37.7526 -37.7492 -37.7489 -37.7452 -37.7447
   -37.7383 -37.7382 -37.7297 -37.7293 -37.7269 -37.7265 -37.7152 -37.7151
   -37.7023 -37.7022 -37.6979 -37.6975 -37.6947 -37.6938 -37.6879 -37.6876
   -37.6834 -37.6828 -37.6780 -37.6779 -37.6588 -37.6581 -37.6544 -37.6536
   -37.6484 -37.6481 -37.5911 -37.5911 -35.3913 -35.3910 -35.3840 -35.3835
   -35.3766 -35.3763 -35.3697 -35.3696 -35.3638 -35.3632 -35.3596 -35.3592
   -35.3519 -35.3515 -35.3462 -35.3459 -35.3425 -35.3424 -35.3383 -35.3380
   -35.3349 -35.3346 -35.3211 -35.3210 -35.3162 -35.3162 -35.3095 -35.3094
   -35.3072 -35.3069 -35.2905 -35.2902 -35.2814 -35.2813 -35.2711 -35.2710
   -35.2668 -35.2667 -35.2553 -35.2549 -35.2519 -35.2519 -35.2432 -35.2431
   -35.2388 -35.2388 -35.2330 -35.2330 -35.2291 -35.2288 -35.2280 -35.2279
   -35.2233 -35.2233 -35.2161 -35.2161 -35.2144 -35.2141 -35.2085 -35.2083
   -35.2045 -35.2038 -35.2002 -35.1999 -35.1991 -35.1989 -35.1911 -35.1904
   -35.1859 -35.1851 -35.1835 -35.1831 -35.1792 -35.1781 -35.1754 -35.1751
   -35.1741 -35.1741 -35.1702 -35.1699 -35.1654 -35.1646 -35.1608 -35.1606
   -35.1560 -35.1554 -35.1528 -35.1522 -35.1432 -35.1427 -35.1220 -35.1213
   -35.1090 -35.1083 -35.0842 -35.0840 -35.0285 -35.0284 -34.9360 -34.9360
   -15.0843 -15.0843 -14.7863 -14.7862 -14.6892 -14.6892 -14.6455 -14.6455
   -14.4594 -14.4594 -14.4177 -14.4177 -14.3362 -14.3362 -13.9971 -13.9971
   -13.9664 -13.9663 -13.8162 -13.8162 -13.7813 -13.7813 -13.7553 -13.7553
   -13.7035 -13.7035 -13.7014 -13.7014 -13.6660 -13.6660 -13.6313 -13.6313
   -13.6297 -13.6297 -13.6167 -13.6166 -13.5737 -13.5737 -13.5488 -13.5487
   -13.5471 -13.5471 -13.5043 -13.5043 -13.4938 -13.4938 -13.4431 -13.4431
   -13.4033 -13.4033 -13.3782 -13.3782 -13.3733 -13.3733 -13.3149 -13.3149
   -13.2901 -13.2901 -13.2720 -13.2720 -13.2448 -13.2448 -13.2306 -13.2305
   -13.2209 -13.2209 -13.2199 -13.2199 -13.2138 -13.2136 -13.1706 -13.1705
   -13.1683 -13.1681 -13.1665 -13.1664 -13.1466 -13.1466 -13.1449 -13.1449
   -13.1369 -13.1369 -13.0952 -13.0951 -13.0858 -13.0858 -13.0405 -13.0405
   -13.0311 -13.0311 -13.0084 -13.0083 -12.9888 -12.9888 -12.9693 -12.9693
    -6.7765  -6.7765  -6.6565  -6.6565  -6.6210  -6.6210  -6.5959  -6.5959
    -6.5101  -6.5101  -6.4639  -6.4638  -6.4499  -6.4498  -6.3756  -6.3756
    -6.3622  -6.3622  -6.3209  -6.3209  -6.2883  -6.2883  -6.2826  -6.2826
    -6.2526  -6.2526  -6.2359  -6.2358  -6.1844  -6.1843  -6.1805  -6.1805
    -6.1608  -6.1607  -6.1552  -6.1552  -6.1481  -6.1480  -6.1437  -6.1437
    -6.0957  -6.0957  -6.0790  -6.0790  -6.0518  -6.0515  -6.0474  -6.0473
    -6.0462  -6.0460  -6.0232  -6.0232  -6.0048  -6.0047  -6.0025  -6.0025
    -5.9289  -5.9289  -5.7962  -5.7962  -5.7707  -5.7707  -5.7233  -5.7233
    -5.6801  -5.6801  -5.6635  -5.6635  -5.5613  -5.5611  -5.5531  -5.5530
    -5.4674  -5.4674  -5.4206  -5.4206  -5.3430  -5.3430  -5.2246  -5.2245
    -5.1516  -5.1516  -5.1007  -5.1007  -5.0667  -5.0666  -5.0623  -5.0621
    -5.0467  -5.0466  -5.0074  -5.0073  -4.9924  -4.9923  -4.9676  -4.9675
    -4.9544  -4.9543  -4.9392  -4.9392  -4.9350  -4.9349  -4.8957  -4.8956
    -4.8870  -4.8870  -4.8777  -4.8777  -4.8499  -4.8498  -4.8465  -4.8464
    -4.8325  -4.8325  -4.8098  -4.8098  -4.7811  -4.7810  -4.7694  -4.7694
    -4.7245  -4.7245  -4.6879  -4.6879  -4.6731  -4.6730  -4.5475  -4.5474
    -4.5292  -4.5292  -4.4094  -4.4094  -4.3689  -4.3687  -4.3661  -4.3661
    -4.3628  -4.3627  -4.3380  -4.3379  -4.3196  -4.3196  -4.3097  -4.3096
    -4.2969  -4.2968  -4.2781  -4.2779  -4.2495  -4.2493  -4.2312  -4.2309
    -4.2206  -4.2206  -4.2163  -4.2162  -4.1988  -4.1987  -4.1864  -4.1863
    -4.1643  -4.1643  -4.1451  -4.1451  -4.1040  -4.1040  -4.0811  -4.0808
    -4.0682  -4.0681  -4.0596  -4.0595  -4.0260  -4.0259  -4.0103  -4.0103
    -3.9810  -3.9810  -3.8585  -3.8585  -3.8514  -3.8514  -3.7043  -3.7043
    -3.6825  -3.6825  -3.6133  -3.6133  -3.6006  -3.6006  -3.5963  -3.5963
    -3.5806  -3.5806  -3.5268  -3.5268  -3.4203  -3.4203  -3.3912  -3.3912
    -3.3336  -3.3335  -3.3027  -3.3027  -3.2837  -3.2837  -3.2569  -3.2568
    -3.2437  -3.2435  -3.1976  -3.1974  -3.1921  -3.1921  -3.1703  -3.1703
    -3.1518  -3.1517  -3.1440  -3.1439  -3.0984  -3.0984  -3.0841  -3.0841
    -3.0468  -3.0468  -2.9902  -2.9902  -2.9630  -2.9629  -2.9597  -2.9596
    -2.8825  -2.8823  -2.8731  -2.8729  -2.8654  -2.8653  -2.8577  -2.8577
    -2.8375  -2.8375  -2.8220  -2.8220  -2.8019  -2.8019  -2.7783  -2.7782
    -2.7645  -2.7644  -2.6959  -2.6958  -2.6607  -2.6607  -2.5880  -2.5879
    -2.5751  -2.5751  -2.5518  -2.5517  -2.5282  -2.5282  -2.4660  -2.4660
    -2.4249  -2.4249  -2.3864  -2.3864  -2.3743  -2.3743  -2.3661  -2.3660
    -2.2961  -2.2961  -2.2885  -2.2884  -2.2566  -2.2565  -2.2408  -2.2407
    -2.1739  -2.1739  -2.1597  -2.1597  -2.1433  -2.1431  -2.1184  -2.1182
    -2.0797  -2.0797  -2.0440  -2.0439  -1.9930  -1.9928  -1.9531  -1.9530
    -1.9285  -1.9283  -1.9095  -1.9094  -1.8395  -1.8394  -1.8189  -1.8186
    -1.8036  -1.8035  -1.7478  -1.7478  -1.7323  -1.7320  -1.7121  -1.7118
    -1.6802  -1.6802  -1.6360  -1.6359  -1.5829  -1.5828  -1.5760  -1.5759
    -1.4993  -1.4991  -1.4455  -1.4455  -1.4361  -1.4359  -1.3741  -1.3738
    -1.3327  -1.3325  -1.2859  -1.2855  -1.2540  -1.2538  -1.2067  -1.2064
    -1.1751  -1.1747  -1.0881  -1.0881  -0.9761  -0.9761   0.0723   0.0723
     0.1548   0.1548   0.7011   0.7012   0.7224   0.7225   0.7800   0.7800
     0.8212   0.8212   0.9065   0.9066   0.9652   0.9654   0.9778   0.9779
     0.9934   0.9936   1.0153   1.0154   1.0535   1.0536   1.0628   1.0630
     1.0781   1.0782   1.0968   1.0969   1.1186   1.1188   1.1240   1.1242
     1.1339   1.1343   1.1444   1.1445   1.1561   1.1561   1.1775   1.1776
     1.1920   1.1922   1.2034   1.2035   1.2367   1.2368   1.2759   1.2759
     1.3145   1.3145   1.3270   1.3272   1.3347   1.3348   1.3669   1.3671
     1.3958   1.3961   1.4237   1.4237

          k = 0.2727 0.1575 0.0000 ( 81971 PWs)   bands (ev):

   -61.9339 -61.9339 -61.9311 -61.9311 -61.9302 -61.9302 -61.9212 -61.9212
   -61.9160 -61.9160 -61.9136 -61.9136 -61.9099 -61.9099 -61.9038 -61.9038
   -61.9026 -61.9026 -61.8993 -61.8993 -61.8981 -61.8981 -61.8965 -61.8965
   -61.8948 -61.8948 -61.8942 -61.8942 -61.8931 -61.8931 -61.8836 -61.8836
   -61.8663 -61.8663 -61.8580 -61.8580 -61.8567 -61.8567 -61.8538 -61.8538
   -61.8474 -61.8474 -61.8466 -61.8466 -61.8435 -61.8435 -61.8249 -61.8249
   -61.8212 -61.8212 -37.7921 -37.7921 -37.7890 -37.7888 -37.7867 -37.7864
   -37.7768 -37.7764 -37.7722 -37.7718 -37.7673 -37.7673 -37.7636 -37.7633
   -37.7569 -37.7567 -37.7530 -37.7528 -37.7493 -37.7491 -37.7447 -37.7442
   -37.7386 -37.7385 -37.7294 -37.7290 -37.7261 -37.7257 -37.7155 -37.7155
   -37.7024 -37.7023 -37.6975 -37.6970 -37.6956 -37.6945 -37.6878 -37.6873
   -37.6842 -37.6834 -37.6776 -37.6774 -37.6593 -37.6587 -37.6542 -37.6535
   -37.6478 -37.6476 -37.5911 -37.5911 -35.3916 -35.3913 -35.3843 -35.3839
   -35.3762 -35.3759 -35.3694 -35.3694 -35.3641 -35.3634 -35.3605 -35.3601
   -35.3520 -35.3517 -35.3462 -35.3459 -35.3421 -35.3421 -35.3362 -35.3358
   -35.3342 -35.3340 -35.3213 -35.3211 -35.3170 -35.3169 -35.3107 -35.3107
   -35.3071 -35.3068 -35.2892 -35.2889 -35.2802 -35.2799 -35.2723 -35.2722
   -35.2680 -35.2679 -35.2569 -35.2563 -35.2517 -35.2515 -35.2426 -35.2426
   -35.2395 -35.2393 -35.2335 -35.2335 -35.2292 -35.2291 -35.2275 -35.2275
   -35.2229 -35.2228 -35.2156 -35.2156 -35.2146 -35.2143 -35.2088 -35.2084
   -35.2044 -35.2037 -35.1998 -35.1995 -35.1985 -35.1982 -35.1897 -35.1889
   -35.1862 -35.1855 -35.1843 -35.1839 -35.1794 -35.1787 -35.1761 -35.1753
   -35.1746 -35.1745 -35.1709 -35.1705 -35.1654 -35.1645 -35.1610 -35.1608
   -35.1568 -35.1559 -35.1530 -35.1523 -35.1422 -35.1418 -35.1203 -35.1196
   -35.1084 -35.1076 -35.0853 -35.0852 -35.0284 -35.0284 -34.9360 -34.9360
   -15.0717 -15.0717 -14.8208 -14.8208 -14.7006 -14.7006 -14.6541 -14.6541
   -14.4276 -14.4276 -14.3897 -14.3897 -14.2927 -14.2927 -14.0393 -14.0393
   -14.0019 -14.0018 -13.8113 -13.8113 -13.7955 -13.7955 -13.7745 -13.7745
   -13.7158 -13.7158 -13.7003 -13.7003 -13.6690 -13.6690 -13.6447 -13.6447
   -13.6356 -13.6356 -13.6165 -13.6165 -13.5632 -13.5632 -13.5368 -13.5368
   -13.5120 -13.5120 -13.4872 -13.4872 -13.4691 -13.4690 -13.4230 -13.4230
   -13.3901 -13.3900 -13.3877 -13.3876 -13.3845 -13.3845 -13.3128 -13.3128
   -13.2922 -13.2922 -13.2880 -13.2880 -13.2448 -13.2447 -13.2422 -13.2422
   -13.2295 -13.2293 -13.2240 -13.2240 -13.2219 -13.2219 -13.1847 -13.1845
   -13.1588 -13.1585 -13.1574 -13.1571 -13.1446 -13.1445 -13.1339 -13.1337
   -13.1296 -13.1295 -13.0905 -13.0904 -13.0858 -13.0858 -13.0478 -13.0478
   -13.0372 -13.0372 -13.0151 -13.0150 -12.9875 -12.9875 -12.9660 -12.9659
    -6.7912  -6.7912  -6.6553  -6.6553  -6.6229  -6.6229  -6.5840  -6.5840
    -6.5062  -6.5062  -6.4698  -6.4698  -6.4591  -6.4590  -6.3624  -6.3624
    -6.3538  -6.3538  -6.3301  -6.3300  -6.3042  -6.3042  -6.3013  -6.3013
    -6.2598  -6.2598  -6.2382  -6.2382  -6.1952  -6.1951  -6.1913  -6.1913
    -6.1686  -6.1686  -6.1503  -6.1502  -6.1400  -6.1399  -6.1240  -6.1239
    -6.0875  -6.0874  -6.0788  -6.0788  -6.0476  -6.0475  -6.0342  -6.0342
    -6.0274  -6.0274  -5.9999  -5.9998  -5.9758  -5.9758  -5.9734  -5.9734
    -5.9251  -5.9250  -5.8158  -5.8157  -5.7717  -5.7717  -5.7161  -5.7159
    -5.7041  -5.7040  -5.7017  -5.7016  -5.6010  -5.6010  -5.5731  -5.5730
    -5.4604  -5.4604  -5.4131  -5.4131  -5.3356  -5.3356  -5.1977  -5.1977
    -5.1586  -5.1586  -5.1097  -5.1097  -5.0721  -5.0720  -5.0648  -5.0647
    -5.0487  -5.0486  -5.0111  -5.0111  -4.9897  -4.9897  -4.9566  -4.9566
    -4.9492  -4.9491  -4.9296  -4.9296  -4.9230  -4.9230  -4.8903  -4.8903
    -4.8736  -4.8736  -4.8673  -4.8673  -4.8457  -4.8457  -4.8262  -4.8262
    -4.8197  -4.8197  -4.7952  -4.7952  -4.7863  -4.7863  -4.7746  -4.7746
    -4.7348  -4.7348  -4.6797  -4.6796  -4.6716  -4.6714  -4.6065  -4.6065
    -4.5276  -4.5275  -4.4254  -4.4254  -4.3827  -4.3824  -4.3801  -4.3797
    -4.3749  -4.3749  -4.3491  -4.3491  -4.3244  -4.3244  -4.3036  -4.3035
    -4.2894  -4.2893  -4.2666  -4.2665  -4.2589  -4.2587  -4.2370  -4.2370
    -4.2201  -4.2200  -4.2096  -4.2093  -4.1958  -4.1957  -4.1941  -4.1938
    -4.1865  -4.1865  -4.1505  -4.1505  -4.1026  -4.1026  -4.0841  -4.0839
    -4.0681  -4.0678  -4.0577  -4.0576  -4.0019  -4.0019  -3.9888  -3.9887
    -3.9556  -3.9556  -3.8555  -3.8555  -3.7900  -3.7900  -3.7086  -3.7086
    -3.6940  -3.6940  -3.6582  -3.6582  -3.6310  -3.6310  -3.6232  -3.6232
    -3.5933  -3.5932  -3.5846  -3.5846  -3.4477  -3.4476  -3.4150  -3.4150
    -3.3168  -3.3168  -3.2941  -3.2941  -3.2677  -3.2676  -3.2263  -3.2262
    -3.2083  -3.2081  -3.1905  -3.1904  -3.1825  -3.1825  -3.1737  -3.1737
    -3.1320  -3.1319  -3.1078  -3.1078  -3.1039  -3.1039  -3.0602  -3.0602
    -3.0272  -3.0272  -2.9736  -2.9736  -2.9647  -2.9647  -2.9527  -2.9527
    -2.8792  -2.8791  -2.8578  -2.8575  -2.8538  -2.8534  -2.8426  -2.8426
    -2.8324  -2.8324  -2.8202  -2.8202  -2.8118  -2.8117  -2.7655  -2.7655
    -2.7496  -2.7495  -2.6972  -2.6972  -2.6545  -2.6545  -2.5922  -2.5921
    -2.5843  -2.5842  -2.5570  -2.5569  -2.5430  -2.5430  -2.4802  -2.4801
    -2.4702  -2.4701  -2.4133  -2.4132  -2.4007  -2.4007  -2.3923  -2.3922
    -2.3383  -2.3383  -2.3040  -2.3040  -2.2549  -2.2547  -2.2337  -2.2335
    -2.1745  -2.1745  -2.1502  -2.1502  -2.1323  -2.1322  -2.1018  -2.1017
    -2.0608  -2.0607  -2.0514  -2.0514  -1.9942  -1.9941  -1.9537  -1.9537
    -1.9244  -1.9243  -1.9039  -1.9039  -1.8305  -1.8304  -1.8124  -1.8122
    -1.7904  -1.7903  -1.7520  -1.7520  -1.7187  -1.7183  -1.7057  -1.7055
    -1.6797  -1.6796  -1.6453  -1.6451  -1.5975  -1.5975  -1.5829  -1.5828
    -1.5097  -1.5094  -1.4578  -1.4577  -1.4404  -1.4404  -1.3802  -1.3799
    -1.3243  -1.3241  -1.2820  -1.2817  -1.2555  -1.2553  -1.1924  -1.1922
    -1.1587  -1.1584  -1.0860  -1.0860  -0.9839  -0.9839   0.0704   0.0705
     0.1532   0.1532   0.7013   0.7014   0.7246   0.7246   0.7596   0.7597
     0.8014   0.8014   0.9084   0.9085   0.9724   0.9724   0.9898   0.9898
     1.0032   1.0033   1.0299   1.0300   1.0644   1.0645   1.0715   1.0715
     1.0808   1.0810   1.1083   1.1084   1.1199   1.1201   1.1272   1.1273
     1.1357   1.1359   1.1479   1.1480   1.1628   1.1628   1.1799   1.1800
     1.1945   1.1948   1.2041   1.2042   1.2399   1.2400   1.2716   1.2716
     1.3112   1.3113   1.3259   1.3260   1.3396   1.3397   1.3677   1.3678
     1.3909   1.3913   1.4254   1.4255

          k = 0.3182 0.1837 0.0000 ( 82000 PWs)   bands (ev):

   -61.9338 -61.9338 -61.9311 -61.9311 -61.9303 -61.9303 -61.9212 -61.9212
   -61.9163 -61.9163 -61.9136 -61.9136 -61.9094 -61.9094 -61.9041 -61.9041
   -61.9026 -61.9026 -61.8995 -61.8995 -61.8982 -61.8982 -61.8964 -61.8964
   -61.8948 -61.8948 -61.8942 -61.8942 -61.8931 -61.8931 -61.8836 -61.8836
   -61.8663 -61.8663 -61.8580 -61.8580 -61.8567 -61.8567 -61.8538 -61.8538
   -61.8474 -61.8474 -61.8466 -61.8466 -61.8435 -61.8435 -61.8249 -61.8249
   -61.8212 -61.8212 -37.7920 -37.7920 -37.7890 -37.7888 -37.7868 -37.7864
   -37.7766 -37.7762 -37.7721 -37.7717 -37.7680 -37.7680 -37.7636 -37.7634
   -37.7568 -37.7567 -37.7532 -37.7531 -37.7494 -37.7492 -37.7441 -37.7437
   -37.7388 -37.7387 -37.7290 -37.7288 -37.7252 -37.7250 -37.7158 -37.7158
   -37.7028 -37.7026 -37.6973 -37.6970 -37.6955 -37.6947 -37.6878 -37.6872
   -37.6848 -37.6839 -37.6773 -37.6772 -37.6597 -37.6592 -37.6540 -37.6535
   -37.6474 -37.6473 -37.5912 -37.5912 -35.3920 -35.3917 -35.3845 -35.3842
   -35.3758 -35.3756 -35.3691 -35.3691 -35.3644 -35.3638 -35.3610 -35.3608
   -35.3521 -35.3520 -35.3462 -35.3460 -35.3418 -35.3417 -35.3346 -35.3341
   -35.3333 -35.3333 -35.3217 -35.3214 -35.3172 -35.3170 -35.3118 -35.3118
   -35.3064 -35.3062 -35.2883 -35.2880 -35.2794 -35.2790 -35.2738 -35.2736
   -35.2686 -35.2683 -35.2582 -35.2576 -35.2515 -35.2512 -35.2425 -35.2424
   -35.2400 -35.2398 -35.2339 -35.2338 -35.2295 -35.2295 -35.2269 -35.2268
   -35.2226 -35.2225 -35.2159 -35.2158 -35.2140 -35.2138 -35.2090 -35.2087
   -35.2045 -35.2039 -35.1993 -35.1992 -35.1974 -35.1972 -35.1882 -35.1875
   -35.1865 -35.1859 -35.1849 -35.1846 -35.1803 -35.1797 -35.1765 -35.1758
   -35.1750 -35.1744 -35.1716 -35.1709 -35.1653 -35.1644 -35.1612 -35.1611
   -35.1574 -35.1564 -35.1531 -35.1525 -35.1415 -35.1412 -35.1187 -35.1180
   -35.1076 -35.1068 -35.0866 -35.0864 -35.0284 -35.0284 -34.9361 -34.9361
   -15.0570 -15.0570 -14.8540 -14.8540 -14.7100 -14.7100 -14.6615 -14.6615
   -14.3942 -14.3942 -14.3620 -14.3620 -14.2489 -14.2489 -14.0815 -14.0815
   -14.0353 -14.0353 -13.8369 -13.8369 -13.8056 -13.8056 -13.7697 -13.7697
   -13.7278 -13.7278 -13.6983 -13.6982 -13.6717 -13.6717 -13.6577 -13.6577
   -13.6398 -13.6398 -13.6168 -13.6168 -13.5530 -13.5530 -13.5252 -13.5252
   -13.4777 -13.4776 -13.4705 -13.4705 -13.4423 -13.4422 -13.4035 -13.4035
   -13.4018 -13.4017 -13.3995 -13.3994 -13.3702 -13.3702 -13.3109 -13.3109
   -13.3045 -13.3045 -13.2933 -13.2933 -13.2596 -13.2595 -13.2471 -13.2470
   -13.2402 -13.2402 -13.2274 -13.2274 -13.2225 -13.2225 -13.2032 -13.2030
   -13.1493 -13.1489 -13.1483 -13.1480 -13.1429 -13.1429 -13.1236 -13.1232
   -13.1213 -13.1210 -13.0868 -13.0868 -13.0853 -13.0853 -13.0552 -13.0552
   -13.0441 -13.0441 -13.0230 -13.0229 -12.9865 -12.9865 -12.9632 -12.9632
    -6.8039  -6.8039  -6.6524  -6.6524  -6.6233  -6.6233  -6.5695  -6.5695
    -6.5251  -6.5251  -6.4770  -6.4770  -6.4493  -6.4493  -6.3584  -6.3584
    -6.3518  -6.3518  -6.3380  -6.3380  -6.3124  -6.3124  -6.3039  -6.3039
    -6.2603  -6.2602  -6.2391  -6.2390  -6.2122  -6.2121  -6.1984  -6.1984
    -6.1808  -6.1808  -6.1552  -6.1552  -6.1186  -6.1185  -6.0966  -6.0965
    -6.0844  -6.0843  -6.0803  -6.0802  -6.0478  -6.0477  -6.0228  -6.0227
    -6.0070  -6.0069  -5.9819  -5.9819  -5.9471  -5.9471  -5.9446  -5.9446
    -5.9205  -5.9205  -5.8347  -5.8347  -5.7730  -5.7730  -5.7542  -5.7539
    -5.7453  -5.7450  -5.6838  -5.6838  -5.6362  -5.6362  -5.5925  -5.5925
    -5.4482  -5.4482  -5.4043  -5.4043  -5.3372  -5.3372  -5.1669  -5.1668
    -5.1586  -5.1584  -5.1178  -5.1178  -5.0765  -5.0765  -5.0670  -5.0669
    -5.0508  -5.0507  -5.0147  -5.0147  -4.9876  -4.9876  -4.9460  -4.9458
    -4.9442  -4.9440  -4.9216  -4.9216  -4.9145  -4.9145  -4.8940  -4.8939
    -4.8675  -4.8675  -4.8653  -4.8653  -4.8390  -4.8390  -4.8281  -4.8281
    -4.8096  -4.8095  -4.7912  -4.7911  -4.7802  -4.7802  -4.7456  -4.7456
    -4.7324  -4.7324  -4.6849  -4.6849  -4.6608  -4.6608  -4.6563  -4.6562
    -4.5296  -4.5295  -4.4491  -4.4490  -4.4126  -4.4126  -4.4070  -4.4070
    -4.3848  -4.3848  -4.3586  -4.3586  -4.3498  -4.3498  -4.2983  -4.2983
    -4.2918  -4.2917  -4.2812  -4.2811  -4.2440  -4.2439  -4.2322  -4.2321
    -4.2196  -4.2193  -4.2036  -4.2035  -4.1854  -4.1853  -4.1705  -4.1705
    -4.1673  -4.1672  -4.1510  -4.1510  -4.1071  -4.1070  -4.0855  -4.0854
    -4.0703  -4.0701  -4.0505  -4.0504  -3.9793  -3.9792  -3.9690  -3.9689
    -3.9294  -3.9294  -3.8542  -3.8542  -3.7415  -3.7415  -3.7282  -3.7282
    -3.6971  -3.6971  -3.6900  -3.6900  -3.6702  -3.6702  -3.6491  -3.6491
    -3.6393  -3.6393  -3.6042  -3.6042  -3.4741  -3.4741  -3.4373  -3.4373
    -3.3162  -3.3162  -3.3037  -3.3036  -3.2469  -3.2469  -3.2276  -3.2276
    -3.2197  -3.2197  -3.1869  -3.1869  -3.1734  -3.1734  -3.1227  -3.1225
    -3.1121  -3.1121  -3.0763  -3.0761  -3.0572  -3.0568  -3.0355  -3.0355
    -3.0171  -3.0171  -2.9812  -2.9812  -2.9526  -2.9526  -2.9193  -2.9193
    -2.8781  -2.8781  -2.8458  -2.8456  -2.8368  -2.8366  -2.8304  -2.8303
    -2.8297  -2.8296  -2.8255  -2.8255  -2.8084  -2.8084  -2.7527  -2.7527
    -2.7405  -2.7405  -2.6940  -2.6940  -2.6515  -2.6514  -2.6041  -2.6040
    -2.5947  -2.5946  -2.5646  -2.5645  -2.5576  -2.5576  -2.5273  -2.5272
    -2.4911  -2.4911  -2.4573  -2.4573  -2.4269  -2.4269  -2.3966  -2.3966
    -2.3906  -2.3906  -2.3090  -2.3090  -2.2554  -2.2552  -2.2206  -2.2205
    -2.1751  -2.1751  -2.1426  -2.1426  -2.1265  -2.1265  -2.0840  -2.0839
    -2.0643  -2.0642  -2.0376  -2.0376  -1.9971  -1.9970  -1.9512  -1.9512
    -1.9181  -1.9181  -1.8990  -1.8990  -1.8227  -1.8227  -1.8103  -1.8101
    -1.7792  -1.7791  -1.7675  -1.7673  -1.7125  -1.7125  -1.6903  -1.6901
    -1.6757  -1.6756  -1.6451  -1.6449  -1.6096  -1.6095  -1.5863  -1.5862
    -1.5245  -1.5243  -1.4733  -1.4732  -1.4461  -1.4460  -1.3855  -1.3853
    -1.3168  -1.3167  -1.2808  -1.2806  -1.2549  -1.2548  -1.1811  -1.1809
    -1.1389  -1.1387  -1.0841  -1.0841  -0.9932  -0.9932   0.0686   0.0686
     0.1517   0.1517   0.7012   0.7012   0.7266   0.7267   0.7428   0.7429
     0.7843   0.7843   0.9139   0.9139   0.9767   0.9768   1.0050   1.0051
     1.0169   1.0169   1.0423   1.0424   1.0657   1.0661   1.0758   1.0760
     1.0857   1.0861   1.1077   1.1077   1.1219   1.1220   1.1332   1.1334
     1.1363   1.1364   1.1541   1.1541   1.1693   1.1695   1.1829   1.1830
     1.1979   1.1980   1.2073   1.2074   1.2423   1.2424   1.2665   1.2665
     1.3061   1.3062   1.3224   1.3226   1.3379   1.3379   1.3721   1.3721
     1.3930   1.3933   1.4277   1.4279

          k = 0.3636 0.2099 0.0000 ( 82012 PWs)   bands (ev):

   -61.9338 -61.9338 -61.9311 -61.9311 -61.9304 -61.9304 -61.9212 -61.9212
   -61.9165 -61.9165 -61.9136 -61.9136 -61.9089 -61.9089 -61.9044 -61.9044
   -61.9026 -61.9026 -61.8996 -61.8996 -61.8982 -61.8982 -61.8964 -61.8964
   -61.8947 -61.8947 -61.8941 -61.8941 -61.8931 -61.8931 -61.8836 -61.8836
   -61.8663 -61.8663 -61.8581 -61.8581 -61.8567 -61.8567 -61.8538 -61.8538
   -61.8474 -61.8474 -61.8466 -61.8466 -61.8435 -61.8435 -61.8250 -61.8250
   -61.8212 -61.8212 -37.7919 -37.7919 -37.7890 -37.7888 -37.7868 -37.7865
   -37.7764 -37.7760 -37.7720 -37.7715 -37.7687 -37.7685 -37.7636 -37.7634
   -37.7568 -37.7566 -37.7534 -37.7533 -37.7494 -37.7493 -37.7436 -37.7432
   -37.7391 -37.7389 -37.7288 -37.7286 -37.7244 -37.7242 -37.7161 -37.7160
   -37.7034 -37.7032 -37.6973 -37.6973 -37.6947 -37.6942 -37.6882 -37.6876
   -37.6851 -37.6842 -37.6771 -37.6770 -37.6601 -37.6597 -37.6539 -37.6535
   -37.6471 -37.6470 -37.5912 -37.5912 -35.3923 -35.3921 -35.3846 -35.3843
   -35.3755 -35.3754 -35.3688 -35.3687 -35.3647 -35.3642 -35.3612 -35.3612
   -35.3523 -35.3523 -35.3461 -35.3460 -35.3417 -35.3417 -35.3337 -35.3333
   -35.3319 -35.3319 -35.3221 -35.3220 -35.3172 -35.3170 -35.3128 -35.3128
   -35.3055 -35.3054 -35.2879 -35.2877 -35.2791 -35.2788 -35.2748 -35.2746
   -35.2688 -35.2686 -35.2591 -35.2585 -35.2514 -35.2511 -35.2427 -35.2427
   -35.2403 -35.2402 -35.2340 -35.2338 -35.2299 -35.2298 -35.2261 -35.2261
   -35.2225 -35.2224 -35.2162 -35.2162 -35.2133 -35.2131 -35.2093 -35.2091
   -35.2047 -35.2042 -35.1989 -35.1988 -35.1961 -35.1961 -35.1873 -35.1868
   -35.1863 -35.1857 -35.1852 -35.1852 -35.1814 -35.1808 -35.1771 -35.1766
   -35.1750 -35.1740 -35.1722 -35.1713 -35.1652 -35.1644 -35.1615 -35.1614
   -35.1578 -35.1568 -35.1532 -35.1527 -35.1410 -35.1408 -35.1174 -35.1168
   -35.1066 -35.1058 -35.0880 -35.0878 -35.0284 -35.0284 -34.9362 -34.9362
   -15.0403 -15.0403 -14.8850 -14.8850 -14.7174 -14.7174 -14.6675 -14.6675
   -14.3594 -14.3594 -14.3347 -14.3347 -14.2072 -14.2072 -14.1232 -14.1232
   -14.0646 -14.0646 -13.8800 -13.8800 -13.7993 -13.7993 -13.7639 -13.7639
   -13.7393 -13.7393 -13.6970 -13.6970 -13.6740 -13.6740 -13.6687 -13.6687
   -13.6432 -13.6432 -13.6175 -13.6175 -13.5436 -13.5436 -13.5131 -13.5131
   -13.4564 -13.4564 -13.4454 -13.4453 -13.4168 -13.4168 -13.4154 -13.4152
   -13.4079 -13.4079 -13.3819 -13.3817 -13.3580 -13.3578 -13.3217 -13.3217
   -13.3090 -13.3089 -13.2940 -13.2940 -13.2747 -13.2746 -13.2659 -13.2656
   -13.2394 -13.2394 -13.2301 -13.2301 -13.2240 -13.2237 -13.2224 -13.2224
   -13.1431 -13.1430 -13.1407 -13.1406 -13.1392 -13.1390 -13.1175 -13.1174
   -13.1085 -13.1084 -13.0853 -13.0853 -13.0830 -13.0830 -13.0621 -13.0620
   -13.0513 -13.0513 -13.0318 -13.0317 -12.9856 -12.9856 -12.9609 -12.9609
    -6.8142  -6.8142  -6.6474  -6.6474  -6.6224  -6.6223  -6.5602  -6.5601
    -6.5387  -6.5387  -6.4930  -6.4930  -6.4301  -6.4301  -6.3794  -6.3794
    -6.3444  -6.3444  -6.3370  -6.3370  -6.3211  -6.3211  -6.2977  -6.2977
    -6.2477  -6.2474  -6.2396  -6.2393  -6.2293  -6.2293  -6.2038  -6.2038
    -6.1925  -6.1925  -6.1591  -6.1591  -6.0969  -6.0968  -6.0888  -6.0888
    -6.0850  -6.0850  -6.0642  -6.0641  -6.0474  -6.0473  -6.0130  -6.0130
    -5.9861  -5.9861  -5.9689  -5.9688  -5.9272  -5.9271  -5.9176  -5.9176
    -5.9106  -5.9105  -5.8526  -5.8526  -5.7979  -5.7976  -5.7865  -5.7862
    -5.7739  -5.7739  -5.6663  -5.6663  -5.6643  -5.6643  -5.6087  -5.6087
    -5.4341  -5.4341  -5.3961  -5.3961  -5.3447  -5.3447  -5.1738  -5.1737
    -5.1252  -5.1252  -5.1121  -5.1121  -5.0798  -5.0798  -5.0687  -5.0686
    -5.0525  -5.0524  -5.0177  -5.0177  -4.9861  -4.9861  -4.9414  -4.9414
    -4.9328  -4.9328  -4.9185  -4.9185  -4.9151  -4.9151  -4.8924  -4.8923
    -4.8630  -4.8629  -4.8588  -4.8587  -4.8332  -4.8332  -4.8290  -4.8289
    -4.8189  -4.8188  -4.7908  -4.7908  -4.7797  -4.7797  -4.7544  -4.7544
    -4.6941  -4.6940  -4.6928  -4.6927  -4.6773  -4.6771  -4.6427  -4.6426
    -4.5342  -4.5342  -4.4758  -4.4757  -4.4584  -4.4584  -4.4353  -4.4352
    -4.4002  -4.4002  -4.3859  -4.3859  -4.3529  -4.3529  -4.2958  -4.2958
    -4.2898  -4.2896  -4.2790  -4.2788  -4.2403  -4.2401  -4.2291  -4.2290
    -4.2178  -4.2174  -4.2043  -4.2041  -4.1658  -4.1658  -4.1473  -4.1473
    -4.1366  -4.1366  -4.1331  -4.1330  -4.1113  -4.1113  -4.0859  -4.0858
    -4.0655  -4.0653  -4.0418  -4.0416  -3.9597  -3.9597  -3.9516  -3.9516
    -3.9045  -3.9045  -3.8548  -3.8548  -3.7757  -3.7757  -3.7470  -3.7469
    -3.7253  -3.7253  -3.6912  -3.6912  -3.6792  -3.6792  -3.6698  -3.6698
    -3.6547  -3.6546  -3.6142  -3.6141  -3.4970  -3.4970  -3.4566  -3.4566
    -3.3224  -3.3224  -3.3063  -3.3062  -3.2722  -3.2721  -3.2389  -3.2388
    -3.2236  -3.2235  -3.1870  -3.1869  -3.1460  -3.1460  -3.1186  -3.1186
    -3.0597  -3.0594  -3.0355  -3.0354  -3.0177  -3.0177  -3.0135  -3.0133
    -2.9883  -2.9883  -2.9808  -2.9808  -2.9303  -2.9303  -2.8881  -2.8880
    -2.8757  -2.8757  -2.8484  -2.8484  -2.8300  -2.8300  -2.8258  -2.8257
    -2.8206  -2.8206  -2.8108  -2.8107  -2.8004  -2.8004  -2.7443  -2.7441
    -2.7376  -2.7375  -2.6859  -2.6859  -2.6539  -2.6538  -2.6271  -2.6270
    -2.6089  -2.6088  -2.5848  -2.5847  -2.5712  -2.5711  -2.5582  -2.5581
    -2.5122  -2.5122  -2.4914  -2.4914  -2.4540  -2.4540  -2.4423  -2.4423
    -2.4019  -2.4019  -2.3113  -2.3113  -2.2558  -2.2557  -2.2048  -2.2047
    -2.1755  -2.1755  -2.1385  -2.1385  -2.1238  -2.1238  -2.0709  -2.0708
    -2.0677  -2.0677  -2.0222  -2.0222  -2.0014  -2.0013  -1.9446  -1.9446
    -1.9110  -1.9110  -1.8950  -1.8950  -1.8187  -1.8186  -1.8152  -1.8150
    -1.7912  -1.7909  -1.7522  -1.7521  -1.7168  -1.7166  -1.6771  -1.6767
    -1.6740  -1.6739  -1.6352  -1.6351  -1.6117  -1.6116  -1.5906  -1.5905
    -1.5414  -1.5412  -1.4884  -1.4882  -1.4576  -1.4574  -1.3876  -1.3874
    -1.3106  -1.3105  -1.2808  -1.2806  -1.2532  -1.2531  -1.1728  -1.1727
    -1.1179  -1.1178  -1.0824  -1.0824  -1.0039  -1.0039   0.0669   0.0669
     0.1503   0.1503   0.7003   0.7003   0.7254   0.7257   0.7330   0.7333
     0.7706   0.7706   0.9221   0.9222   0.9826   0.9826   1.0168   1.0169
     1.0341   1.0341   1.0451   1.0453   1.0632   1.0634   1.0780   1.0782
     1.0908   1.0911   1.1081   1.1082   1.1228   1.1229   1.1326   1.1328
     1.1402   1.1403   1.1606   1.1606   1.1745   1.1746   1.1843   1.1844
     1.2021   1.2022   1.2123   1.2125   1.2439   1.2439   1.2618   1.2618
     1.3006   1.3007   1.3199   1.3200   1.3341   1.3341   1.3708   1.3709
     1.3987   1.3987   1.4294   1.4297

          k = 0.4091 0.2362 0.0000 ( 81984 PWs)   bands (ev):

   -61.9337 -61.9337 -61.9311 -61.9311 -61.9305 -61.9305 -61.9211 -61.9211
   -61.9167 -61.9167 -61.9135 -61.9135 -61.9084 -61.9084 -61.9047 -61.9047
   -61.9026 -61.9026 -61.8997 -61.8997 -61.8983 -61.8983 -61.8963 -61.8963
   -61.8947 -61.8947 -61.8941 -61.8941 -61.8931 -61.8931 -61.8836 -61.8836
   -61.8663 -61.8663 -61.8580 -61.8580 -61.8567 -61.8567 -61.8538 -61.8538
   -61.8474 -61.8474 -61.8466 -61.8466 -61.8435 -61.8435 -61.8249 -61.8249
   -61.8212 -61.8212 -37.7918 -37.7918 -37.7890 -37.7889 -37.7867 -37.7865
   -37.7762 -37.7759 -37.7719 -37.7715 -37.7692 -37.7690 -37.7636 -37.7635
   -37.7567 -37.7566 -37.7536 -37.7536 -37.7495 -37.7494 -37.7432 -37.7429
   -37.7393 -37.7392 -37.7285 -37.7284 -37.7236 -37.7235 -37.7163 -37.7162
   -37.7039 -37.7038 -37.6974 -37.6974 -37.6937 -37.6934 -37.6888 -37.6885
   -37.6849 -37.6843 -37.6770 -37.6770 -37.6603 -37.6600 -37.6537 -37.6535
   -37.6468 -37.6467 -37.5912 -37.5912 -35.3925 -35.3924 -35.3846 -35.3844
   -35.3753 -35.3752 -35.3686 -35.3685 -35.3650 -35.3646 -35.3614 -35.3613
   -35.3526 -35.3525 -35.3459 -35.3458 -35.3418 -35.3418 -35.3331 -35.3329
   -35.3306 -35.3306 -35.3227 -35.3225 -35.3171 -35.3169 -35.3135 -35.3134
   -35.3043 -35.3043 -35.2880 -35.2879 -35.2793 -35.2790 -35.2750 -35.2748
   -35.2693 -35.2691 -35.2594 -35.2589 -35.2515 -35.2512 -35.2430 -35.2430
   -35.2404 -35.2404 -35.2339 -35.2337 -35.2302 -35.2302 -35.2254 -35.2254
   -35.2225 -35.2224 -35.2165 -35.2164 -35.2127 -35.2125 -35.2096 -35.2094
   -35.2049 -35.2046 -35.1985 -35.1985 -35.1950 -35.1949 -35.1876 -35.1874
   -35.1855 -35.1854 -35.1850 -35.1843 -35.1824 -35.1818 -35.1779 -35.1775
   -35.1747 -35.1737 -35.1725 -35.1717 -35.1651 -35.1644 -35.1617 -35.1617
   -35.1579 -35.1572 -35.1532 -35.1528 -35.1406 -35.1405 -35.1163 -35.1159
   -35.1055 -35.1048 -35.0891 -35.0890 -35.0284 -35.0284 -34.9362 -34.9362
   -15.0219 -15.0219 -14.9135 -14.9135 -14.7227 -14.7227 -14.6717 -14.6717
   -14.3235 -14.3235 -14.3092 -14.3091 -14.1747 -14.1747 -14.1634 -14.1633
   -14.0835 -14.0835 -13.9224 -13.9224 -13.7924 -13.7924 -13.7582 -13.7582
   -13.7498 -13.7498 -13.6973 -13.6973 -13.6771 -13.6771 -13.6752 -13.6752
   -13.6455 -13.6455 -13.6185 -13.6185 -13.5355 -13.5355 -13.5010 -13.5010
   -13.4470 -13.4470 -13.4306 -13.4306 -13.4174 -13.4172 -13.4091 -13.4091
   -13.3906 -13.3903 -13.3630 -13.3624 -13.3468 -13.3463 -13.3380 -13.3380
   -13.3085 -13.3084 -13.2944 -13.2944 -13.2891 -13.2890 -13.2851 -13.2849
   -13.2465 -13.2462 -13.2388 -13.2388 -13.2321 -13.2321 -13.2222 -13.2222
   -13.1418 -13.1418 -13.1350 -13.1349 -13.1324 -13.1323 -13.1124 -13.1124
   -13.0961 -13.0961 -13.0837 -13.0837 -13.0808 -13.0808 -13.0680 -13.0680
   -13.0585 -13.0585 -13.0410 -13.0410 -12.9849 -12.9849 -12.9593 -12.9593
    -6.8216  -6.8216  -6.6403  -6.6403  -6.6206  -6.6205  -6.5739  -6.5739
    -6.5247  -6.5247  -6.5068  -6.5068  -6.4294  -6.4294  -6.3842  -6.3842
    -6.3491  -6.3491  -6.3275  -6.3275  -6.3223  -6.3223  -6.3001  -6.3001
    -6.2523  -6.2523  -6.2408  -6.2407  -6.2164  -6.2163  -6.2079  -6.2078
    -6.2029  -6.2028  -6.1618  -6.1618  -6.0985  -6.0985  -6.0937  -6.0937
    -6.0755  -6.0755  -6.0452  -6.0452  -6.0292  -6.0291  -6.0055  -6.0055
    -5.9656  -5.9656  -5.9601  -5.9600  -5.9206  -5.9206  -5.8955  -5.8954
    -5.8931  -5.8931  -5.8689  -5.8689  -5.8427  -5.8425  -5.8209  -5.8208
    -5.7756  -5.7756  -5.6911  -5.6911  -5.6484  -5.6484  -5.6206  -5.6206
    -5.4196  -5.4196  -5.3895  -5.3895  -5.3551  -5.3551  -5.1797  -5.1797
    -5.1298  -5.1298  -5.0824  -5.0824  -5.0701  -5.0700  -5.0638  -5.0638
    -5.0520  -5.0519  -5.0199  -5.0199  -4.9855  -4.9855  -4.9375  -4.9375
    -4.9254  -4.9253  -4.9215  -4.9214  -4.9126  -4.9126  -4.8881  -4.8881
    -4.8606  -4.8604  -4.8541  -4.8539  -4.8384  -4.8384  -4.8300  -4.8300
    -4.8214  -4.8213  -4.8098  -4.8097  -4.7899  -4.7899  -4.7587  -4.7587
    -4.7046  -4.7046  -4.6717  -4.6717  -4.6418  -4.6417  -4.6308  -4.6308
    -4.5383  -4.5383  -4.5021  -4.5020  -4.4993  -4.4993  -4.4628  -4.4628
    -4.4376  -4.4376  -4.3860  -4.3859  -4.3545  -4.3545  -4.2923  -4.2923
    -4.2855  -4.2853  -4.2763  -4.2761  -4.2464  -4.2463  -4.2275  -4.2274
    -4.2123  -4.2121  -4.1951  -4.1950  -4.1662  -4.1662  -4.1338  -4.1337
    -4.1257  -4.1256  -4.1044  -4.1044  -4.0985  -4.0983  -4.0750  -4.0749
    -4.0454  -4.0452  -4.0270  -4.0268  -3.9445  -3.9445  -3.9378  -3.9377
    -3.8841  -3.8841  -3.8584  -3.8584  -3.8325  -3.8325  -3.7861  -3.7861
    -3.7571  -3.7571  -3.7092  -3.7092  -3.7079  -3.7079  -3.6694  -3.6693
    -3.6227  -3.6227  -3.5993  -3.5993  -3.5143  -3.5143  -3.4714  -3.4714
    -3.3324  -3.3323  -3.3245  -3.3244  -3.2964  -3.2964  -3.2469  -3.2469
    -3.2187  -3.2187  -3.1874  -3.1874  -3.1244  -3.1244  -3.1200  -3.1200
    -3.0203  -3.0202  -3.0187  -3.0185  -2.9999  -2.9999  -2.9874  -2.9874
    -2.9735  -2.9733  -2.9288  -2.9287  -2.9038  -2.9038  -2.8730  -2.8730
    -2.8615  -2.8614  -2.8468  -2.8468  -2.8289  -2.8288  -2.8197  -2.8197
    -2.8112  -2.8112  -2.7947  -2.7946  -2.7884  -2.7884  -2.7443  -2.7442
    -2.7314  -2.7313  -2.6868  -2.6868  -2.6647  -2.6646  -2.6580  -2.6578
    -2.6340  -2.6338  -2.6124  -2.6123  -2.5813  -2.5813  -2.5644  -2.5644
[...]
   -35.1096 -35.1094 -35.0824 -35.0822 -35.0285 -35.0285 -34.9358 -34.9358
   -15.1034 -15.1034 -14.7012 -14.7000 -14.6828 -14.6825 -14.6025 -14.6001
   -14.5396 -14.5388 -14.4673 -14.4664 -14.4183 -14.4174 -13.9290 -13.9087
   -13.8866 -13.8646 -13.8235 -13.8235 -13.8163 -13.7967 -13.7297 -13.7029
   -13.6774 -13.6773 -13.6760 -13.6679 -13.6610 -13.6609 -13.6392 -13.6351
   -13.6349 -13.6239 -13.6106 -13.6105 -13.6003 -13.6002 -13.5703 -13.5697
   -13.5641 -13.5641 -13.5449 -13.5390 -13.5390 -13.5371 -13.4853 -13.4837
   -13.4505 -13.4471 -13.3576 -13.3565 -13.3482 -13.3472 -13.3187 -13.3186
   -13.2833 -13.2822 -13.2522 -13.2512 -13.2404 -13.2402 -13.2247 -13.2245
   -13.2053 -13.2041 -13.2013 -13.2004 -13.1948 -13.1943 -13.1938 -13.1914
   -13.1903 -13.1784 -13.1645 -13.1643 -13.1629 -13.1547 -13.1543 -13.1473
   -13.1453 -13.1343 -13.1159 -13.1001 -13.0852 -13.0851 -13.0262 -13.0255
   -13.0219 -13.0203 -12.9969 -12.9958 -12.9941 -12.9934 -12.9773 -12.9763
    -6.7427  -6.7418  -6.6593  -6.6588  -6.6179  -6.6177  -6.5985  -6.5975
    -6.5568  -6.5558  -6.4694  -6.4653  -6.4462  -6.4453  -6.3865  -6.3806
    -6.3196  -6.3084  -6.3034  -6.2999  -6.2829  -6.2636  -6.2520  -6.2481
    -6.2210  -6.2142  -6.2117  -6.2044  -6.1988  -6.1981  -6.1853  -6.1792
    -6.1743  -6.1696  -6.1694  -6.1640  -6.1319  -6.1310  -6.1266  -6.1214
    -6.1187  -6.1138  -6.1053  -6.1040  -6.0949  -6.0860  -6.0834  -6.0824
    -6.0800  -6.0705  -6.0624  -6.0604  -6.0598  -6.0583  -6.0507  -6.0467
    -5.9374  -5.9373  -5.7715  -5.7675  -5.7577  -5.7560  -5.7528  -5.7498
    -5.6272  -5.6251  -5.5788  -5.5785  -5.5708  -5.5687  -5.4769  -5.4743
    -5.4708  -5.4689  -5.3941  -5.3875  -5.3691  -5.3672  -5.2622  -5.2549
    -5.1270  -5.1118  -5.0825  -5.0822  -5.0612  -5.0599  -5.0508  -5.0496
    -5.0420  -5.0409  -5.0253  -5.0114  -5.0008  -4.9973  -4.9942  -4.9927
    -4.9915  -4.9889  -4.9701  -4.9654  -4.9628  -4.9612  -4.9574  -4.9541
    -4.9540  -4.9358  -4.9114  -4.9105  -4.9098  -4.9069  -4.8151  -4.8150
    -4.8107  -4.8059  -4.7828  -4.7801  -4.7610  -4.7564  -4.7434  -4.7427
    -4.7256  -4.7216  -4.7107  -4.7072  -4.6629  -4.6564  -4.5626  -4.5590
    -4.4300  -4.4283  -4.3840  -4.3827  -4.3794  -4.3771  -4.3727  -4.3657
    -4.3630  -4.3611  -4.3450  -4.3449  -4.3339  -4.3313  -4.3183  -4.3179
    -4.3052  -4.3036  -4.2864  -4.2853  -4.2517  -4.2471  -4.2278  -4.2224
    -4.2046  -4.2017  -4.1827  -4.1806  -4.1742  -4.1711  -4.1560  -4.1520
    -4.1518  -4.1488  -4.1285  -4.1169  -4.0894  -4.0758  -4.0746  -4.0729
    -4.0639  -4.0605  -4.0458  -4.0446  -4.0312  -4.0272  -4.0182  -4.0148
    -4.0041  -3.9995  -3.9752  -3.9436  -3.9386  -3.9049  -3.7137  -3.6689
    -3.6529  -3.6273  -3.5986  -3.5725  -3.5482  -3.5449  -3.5413  -3.5373
    -3.5362  -3.5346  -3.5200  -3.4864  -3.4389  -3.4154  -3.4153  -3.4036
    -3.3539  -3.3529  -3.3348  -3.3217  -3.3128  -3.2999  -3.2647  -3.2637
    -3.2510  -3.2448  -3.2328  -3.2302  -3.2233  -3.2184  -3.2017  -3.1916
    -3.1822  -3.1592  -3.1497  -3.1337  -3.1069  -3.1029  -3.1002  -3.0989
    -3.0845  -3.0816  -3.0691  -3.0610  -2.9517  -2.9501  -2.9273  -2.9272
    -2.9097  -2.9090  -2.8940  -2.8933  -2.8878  -2.8868  -2.8537  -2.8527
    -2.8399  -2.8393  -2.8376  -2.8346  -2.8086  -2.8050  -2.7986  -2.7975
    -2.7700  -2.7697  -2.6989  -2.6982  -2.6687  -2.6640  -2.5897  -2.5885
    -2.5721  -2.5715  -2.5398  -2.5376  -2.5180  -2.5119  -2.4797  -2.4760
    -2.3516  -2.3465  -2.3337  -2.3299  -2.3272  -2.3248  -2.2988  -2.2782
    -2.2754  -2.2735  -2.2716  -2.2514  -2.2284  -2.2265  -2.2175  -2.1963
    -2.1911  -2.1889  -2.1879  -2.1730  -2.1711  -2.1609  -2.1424  -2.1420
    -2.1326  -2.1260  -2.0284  -2.0204  -1.9970  -1.9923  -1.9456  -1.9429
    -1.9362  -1.9279  -1.9169  -1.9040  -1.8911  -1.8534  -1.8506  -1.8302
    -1.8115  -1.8095  -1.7994  -1.7880  -1.7666  -1.7618  -1.7288  -1.7276
    -1.6344  -1.6310  -1.6224  -1.6210  -1.5630  -1.5575  -1.5216  -1.5189
    -1.5184  -1.4823  -1.4739  -1.4292  -1.4101  -1.4032  -1.3943  -1.3700
    -1.3506  -1.3377  -1.3149  -1.2994  -1.2524  -1.2432  -1.2277  -1.2269
    -1.2096  -1.1880  -1.0920  -1.0919  -0.9645  -0.9644   0.0750   0.0762
     0.1573   0.1584   0.6987   0.7011   0.7184   0.7202   0.8163   0.8341
     0.8764   0.8947   0.9020   0.9194   0.9229   0.9263   0.9560   0.9760
     0.9832   0.9880   0.9962   1.0080   1.0146   1.0182   1.0301   1.0442
     1.0454   1.0521   1.0600   1.0778   1.0899   1.1047   1.1141   1.1172
     1.1354   1.1392   1.1433   1.1455   1.1474   1.1477   1.1814   1.1827
     1.1859   1.1901   1.2050   1.2082   1.2226   1.2329   1.2716   1.2823
     1.3021   1.3050   1.3199   1.3208   1.3364   1.3392   1.3817   1.3884
     1.4085   1.4117   1.4180   1.4262

          k = 0.0513 0.0888 0.0000 ( 81921 PWs)   bands (ev):

   -61.9340 -61.9340 -61.9311 -61.9311 -61.9300 -61.9300 -61.9214 -61.9214
   -61.9143 -61.9143 -61.9137 -61.9137 -61.9121 -61.9121 -61.9030 -61.9030
   -61.9027 -61.9027 -61.8986 -61.8986 -61.8977 -61.8977 -61.8972 -61.8972
   -61.8949 -61.8949 -61.8944 -61.8944 -61.8932 -61.8932 -61.8836 -61.8836
   -61.8663 -61.8663 -61.8580 -61.8580 -61.8567 -61.8567 -61.8537 -61.8537
   -61.8474 -61.8474 -61.8466 -61.8466 -61.8435 -61.8435 -61.8249 -61.8249
   -61.8212 -61.8212 -37.7925 -37.7925 -37.7891 -37.7890 -37.7864 -37.7862
   -37.7771 -37.7769 -37.7725 -37.7725 -37.7652 -37.7651 -37.7633 -37.7630
   -37.7568 -37.7567 -37.7527 -37.7526 -37.7486 -37.7479 -37.7469 -37.7461
   -37.7379 -37.7378 -37.7305 -37.7299 -37.7287 -37.7282 -37.7142 -37.7142
   -37.7031 -37.7031 -37.6989 -37.6987 -37.6908 -37.6904 -37.6888 -37.6887
   -37.6819 -37.6816 -37.6794 -37.6794 -37.6574 -37.6568 -37.6539 -37.6531
   -37.6503 -37.6499 -37.5910 -37.5910 -35.3908 -35.3905 -35.3822 -35.3819
   -35.3779 -35.3779 -35.3703 -35.3701 -35.3630 -35.3629 -35.3562 -35.3545
   -35.3517 -35.3504 -35.3484 -35.3472 -35.3460 -35.3453 -35.3412 -35.3407
   -35.3381 -35.3369 -35.3218 -35.3216 -35.3124 -35.3117 -35.3071 -35.3063
   -35.3055 -35.3053 -35.2958 -35.2953 -35.2858 -35.2856 -35.2697 -35.2695
   -35.2606 -35.2602 -35.2539 -35.2539 -35.2511 -35.2510 -35.2454 -35.2453
   -35.2380 -35.2377 -35.2313 -35.2310 -35.2295 -35.2291 -35.2274 -35.2262
   -35.2257 -35.2248 -35.2187 -35.2187 -35.2123 -35.2114 -35.2090 -35.2086
   -35.2062 -35.2056 -35.2008 -35.2007 -35.1990 -35.1986 -35.1949 -35.1942
   -35.1848 -35.1842 -35.1811 -35.1809 -35.1801 -35.1793 -35.1739 -35.1735
   -35.1726 -35.1722 -35.1683 -35.1683 -35.1643 -35.1641 -35.1605 -35.1604
   -35.1548 -35.1539 -35.1520 -35.1509 -35.1474 -35.1458 -35.1258 -35.1256
   -35.1098 -35.1096 -35.0818 -35.0817 -35.0285 -35.0285 -34.9358 -34.9358
   -15.1090 -15.1090 -14.6677 -14.6669 -14.6560 -14.6556 -14.6065 -14.6047
   -14.5518 -14.5517 -14.5079 -14.5075 -14.4420 -14.4416 -13.8865 -13.8652
   -13.8647 -13.8435 -13.8256 -13.8256 -13.8039 -13.7836 -13.7526 -13.7280
   -13.6803 -13.6739 -13.6668 -13.6666 -13.6582 -13.6567 -13.6566 -13.6472
   -13.6092 -13.6087 -13.6044 -13.6027 -13.6013 -13.6004 -13.5722 -13.5717
   -13.5706 -13.5702 -13.5539 -13.5539 -13.5467 -13.5415 -13.5028 -13.5019
   -13.4766 -13.4746 -13.3474 -13.3466 -13.3429 -13.3421 -13.3197 -13.3197
   -13.2749 -13.2741 -13.2574 -13.2566 -13.2322 -13.2322 -13.2133 -13.2131
   -13.2120 -13.2118 -13.1988 -13.1988 -13.1954 -13.1944 -13.1936 -13.1931
   -13.1834 -13.1754 -13.1716 -13.1715 -13.1644 -13.1644 -13.1593 -13.1511
   -13.1379 -13.1321 -13.1154 -13.1084 -13.0848 -13.0848 -13.0206 -13.0199
   -13.0178 -13.0167 -12.9954 -12.9948 -12.9935 -12.9932 -12.9807 -12.9802
    -6.7277  -6.7274  -6.6582  -6.6580  -6.6130  -6.6128  -6.6033  -6.6028
    -6.5692  -6.5689  -6.4776  -6.4763  -6.4663  -6.4657  -6.3570  -6.3514
    -6.2952  -6.2915  -6.2902  -6.2873  -6.2661  -6.2456  -6.2408  -6.2387
    -6.2293  -6.2107  -6.2106  -6.2075  -6.1962  -6.1940  -6.1900  -6.1817
    -6.1747  -6.1740  -6.1567  -6.1565  -6.1379  -6.1330  -6.1274  -6.1269
    -6.1236  -6.1211  -6.1125  -6.1095  -6.1052  -6.0997  -6.0945  -6.0939
    -6.0929  -6.0925  -6.0810  -6.0798  -6.0777  -6.0772  -6.0601  -6.0582
    -5.9411  -5.9411  -5.7698  -5.7670  -5.7628  -5.7597  -5.7397  -5.7395
    -5.5977  -5.5969  -5.5715  -5.5714  -5.5646  -5.5637  -5.4858  -5.4839
    -5.4719  -5.4688  -5.3615  -5.3528  -5.3494  -5.3379  -5.2560  -5.2490
    -5.1534  -5.1422  -5.0768  -5.0768  -5.0551  -5.0538  -5.0517  -5.0499
    -5.0468  -5.0349  -5.0322  -5.0318  -5.0152  -5.0033  -5.0000  -4.9998
    -4.9987  -4.9958  -4.9894  -4.9868  -4.9758  -4.9724  -4.9697  -4.9677
    -4.9657  -4.9632  -4.9177  -4.9174  -4.9161  -4.9151  -4.8063  -4.8061
    -4.7987  -4.7961  -4.7669  -4.7656  -4.7490  -4.7467  -4.7306  -4.7296
    -4.7248  -4.7243  -4.7133  -4.7119  -4.6560  -4.6516  -4.5870  -4.5841
    -4.4124  -4.4116  -4.3937  -4.3912  -4.3860  -4.3834  -4.3697  -4.3686
    -4.3596  -4.3579  -4.3252  -4.3244  -4.3213  -4.3175  -4.3133  -4.3111
    -4.3008  -4.2997  -4.2958  -4.2933  -4.2489  -4.2449  -4.2250  -4.2216
    -4.2050  -4.2006  -4.1794  -4.1758  -4.1667  -4.1601  -4.1547  -4.1511
    -4.1467  -4.1466  -4.1267  -4.1252  -4.0772  -4.0770  -4.0752  -4.0702
    -4.0631  -4.0614  -4.0557  -4.0544  -4.0484  -4.0476  -4.0425  -4.0393
    -3.9977  -3.9722  -3.9399  -3.9075  -3.9008  -3.8687  -3.7261  -3.6778
    -3.6728  -3.6601  -3.6159  -3.6104  -3.5420  -3.5397  -3.5217  -3.5202
    -3.5176  -3.5155  -3.5118  -3.5069  -3.4962  -3.4753  -3.3757  -3.3754
    -3.3312  -3.3288  -3.3236  -3.3173  -3.2917  -3.2835  -3.2641  -3.2602
    -3.2522  -3.2497  -3.2440  -3.2390  -3.2334  -3.2257  -3.2096  -3.2060
    -3.1901  -3.1742  -3.1661  -3.1503  -3.1087  -3.1054  -3.1041  -3.1029
    -3.0925  -3.0920  -3.0861  -3.0846  -2.9436  -2.9429  -2.9330  -2.9327
    -2.9131  -2.9121  -2.9002  -2.8997  -2.8882  -2.8879  -2.8522  -2.8514
    -2.8449  -2.8438  -2.8302  -2.8278  -2.8160  -2.8129  -2.8057  -2.8057
    -2.7624  -2.7620  -2.7022  -2.7021  -2.6643  -2.6620  -2.5912  -2.5908
    -2.5779  -2.5778  -2.5406  -2.5401  -2.5171  -2.5149  -2.4805  -2.4792
    -2.3328  -2.3306  -2.3102  -2.3075  -2.3000  -2.2964  -2.2772  -2.2766
    -2.2664  -2.2641  -2.2517  -2.2269  -2.2261  -2.2226  -2.2088  -2.2031
    -2.2025  -2.1884  -2.1815  -2.1802  -2.1621  -2.1580  -2.1560  -2.1523
    -2.1486  -2.1478  -2.0208  -2.0174  -1.9961  -1.9946  -1.9439  -1.9428
    -1.9284  -1.9205  -1.9177  -1.9031  -1.8942  -1.8683  -1.8628  -1.8534
    -1.8209  -1.8169  -1.8071  -1.8047  -1.7779  -1.7766  -1.7358  -1.7354
    -1.6169  -1.6157  -1.6138  -1.6132  -1.5384  -1.5340  -1.5157  -1.5125
    -1.5091  -1.4793  -1.4716  -1.4408  -1.4115  -1.4021  -1.3883  -1.3818
    -1.3475  -1.3452  -1.3234  -1.3163  -1.2537  -1.2498  -1.2252  -1.2239
    -1.2094  -1.2011  -1.0934  -1.0933  -0.9611  -0.9611   0.0765   0.0768
     0.1588   0.1591   0.6991   0.6998   0.7181   0.7187   0.8478   0.8641
     0.8832   0.9052   0.9077   0.9257   0.9303   0.9323   0.9520   0.9614
     0.9658   0.9850   0.9851   0.9963   1.0064   1.0160   1.0203   1.0209
     1.0300   1.0371   1.0491   1.0646   1.0811   1.0900   1.1113   1.1120
     1.1397   1.1411   1.1433   1.1437   1.1476   1.1477   1.1835   1.1845
     1.1871   1.1900   1.2073   1.2090   1.2218   1.2261   1.2680   1.2722
     1.3042   1.3051   1.3190   1.3196   1.3354   1.3360   1.3952   1.3990
     1.4147   1.4151   1.4220   1.4255

          k = 0.0256 0.0444 0.0000 ( 81891 PWs)   bands (ev):

   -61.9341 -61.9341 -61.9311 -61.9311 -61.9299 -61.9299 -61.9214 -61.9214
   -61.9139 -61.9139 -61.9136 -61.9136 -61.9126 -61.9126 -61.9030 -61.9030
   -61.9027 -61.9027 -61.8984 -61.8984 -61.8977 -61.8977 -61.8971 -61.8971
   -61.8949 -61.8949 -61.8944 -61.8944 -61.8932 -61.8932 -61.8836 -61.8836
   -61.8662 -61.8662 -61.8580 -61.8580 -61.8566 -61.8566 -61.8537 -61.8537
   -61.8474 -61.8474 -61.8465 -61.8465 -61.8435 -61.8435 -61.8249 -61.8249
   -61.8212 -61.8212 -37.7925 -37.7925 -37.7891 -37.7890 -37.7863 -37.7862
   -37.7771 -37.7770 -37.7725 -37.7725 -37.7650 -37.7649 -37.7630 -37.7629
   -37.7568 -37.7568 -37.7527 -37.7526 -37.7481 -37.7476 -37.7472 -37.7466
   -37.7378 -37.7377 -37.7304 -37.7301 -37.7289 -37.7286 -37.7140 -37.7140
   -37.7033 -37.7033 -37.6989 -37.6988 -37.6900 -37.6896 -37.6890 -37.6888
   -37.6817 -37.6815 -37.6798 -37.6797 -37.6570 -37.6566 -37.6537 -37.6532
   -37.6506 -37.6504 -37.5910 -37.5910 -35.3906 -35.3905 -35.3817 -35.3814
   -35.3784 -35.3782 -35.3703 -35.3702 -35.3629 -35.3628 -35.3544 -35.3540
   -35.3509 -35.3501 -35.3489 -35.3488 -35.3472 -35.3470 -35.3404 -35.3402
   -35.3385 -35.3381 -35.3219 -35.3219 -35.3112 -35.3110 -35.3060 -35.3057
   -35.3051 -35.3048 -35.2971 -35.2968 -35.2866 -35.2865 -35.2695 -35.2694
   -35.2587 -35.2584 -35.2546 -35.2545 -35.2510 -35.2508 -35.2456 -35.2455
   -35.2380 -35.2379 -35.2309 -35.2306 -35.2296 -35.2294 -35.2265 -35.2261
   -35.2258 -35.2253 -35.2193 -35.2193 -35.2113 -35.2108 -35.2095 -35.2092
   -35.2063 -35.2062 -35.2008 -35.2007 -35.1985 -35.1983 -35.1956 -35.1952
   -35.1845 -35.1841 -35.1807 -35.1806 -35.1803 -35.1797 -35.1738 -35.1735
   -35.1720 -35.1718 -35.1682 -35.1681 -35.1639 -35.1637 -35.1604 -35.1604
   -35.1546 -35.1541 -35.1510 -35.1506 -35.1481 -35.1473 -35.1264 -35.1263
   -35.1099 -35.1098 -35.0814 -35.0814 -35.0285 -35.0285 -34.9357 -34.9357
   -15.1123 -15.1123 -14.6358 -14.6358 -14.6317 -14.6310 -14.6062 -14.6052
   -14.5662 -14.5659 -14.5467 -14.5466 -14.4576 -14.4576 -13.8500 -13.8439
   -13.8321 -13.8274 -13.8270 -13.8267 -13.7894 -13.7722 -13.7699 -13.7514
   -13.7084 -13.7071 -13.6587 -13.6584 -13.6557 -13.6556 -13.6542 -13.6536
   -13.6142 -13.6142 -13.5947 -13.5947 -13.5759 -13.5758 -13.5712 -13.5697
   -13.5678 -13.5675 -13.5621 -13.5616 -13.5465 -13.5439 -13.5198 -13.5193
   -13.5042 -13.5035 -13.3409 -13.3404 -13.3391 -13.3386 -13.3202 -13.3202
   -13.2665 -13.2661 -13.2609 -13.2604 -13.2268 -13.2268 -13.2231 -13.2231
   -13.2028 -13.2027 -13.1994 -13.1994 -13.1945 -13.1944 -13.1877 -13.1872
   -13.1778 -13.1775 -13.1758 -13.1743 -13.1739 -13.1738 -13.1576 -13.1561
   -13.1308 -13.1298 -13.1164 -13.1152 -13.0845 -13.0845 -13.0164 -13.0161
   -13.0149 -13.0145 -12.9945 -12.9945 -12.9934 -12.9932 -12.9830 -12.9829
    -6.7164  -6.7164  -6.6588  -6.6588  -6.6071  -6.6070  -6.6053  -6.6052
    -6.5793  -6.5793  -6.4844  -6.4841  -6.4808  -6.4805  -6.3264  -6.3245
    -6.2837  -6.2836  -6.2702  -6.2675  -6.2556  -6.2472  -6.2333  -6.2270
    -6.2261  -6.2235  -6.2141  -6.2122  -6.2067  -6.2052  -6.1903  -6.1881
    -6.1605  -6.1588  -6.1502  -6.1455  -6.1433  -6.1415  -6.1371  -6.1368
    -6.1282  -6.1281  -6.1136  -6.1128  -6.1068  -6.1056  -6.1024  -6.1019
    -6.0987  -6.0986  -6.0948  -6.0947  -6.0922  -6.0921  -6.0677  -6.0674
    -5.9439  -5.9439  -5.7685  -5.7673  -5.7664  -5.7652  -5.7284  -5.7284
    -5.5748  -5.5747  -5.5684  -5.5682  -5.5599  -5.5598  -5.4938  -5.4926
    -5.4866  -5.4853  -5.3303  -5.3288  -5.2946  -5.2935  -5.2537  -5.2500
    -5.1836  -5.1795  -5.0737  -5.0734  -5.0625  -5.0577  -5.0521  -5.0519
    -5.0506  -5.0503  -5.0496  -5.0445  -5.0251  -5.0250  -5.0037  -5.0034
    -5.0007  -5.0005  -4.9855  -4.9841  -4.9794  -4.9777  -4.9757  -4.9750
    -4.9717  -4.9708  -4.9217  -4.9216  -4.9199  -4.9198  -4.7999  -4.7998
    -4.7908  -4.7903  -4.7589  -4.7586  -4.7408  -4.7407  -4.7323  -4.7307
    -4.7250  -4.7235  -4.6916  -4.6909  -4.6495  -4.6472  -4.6183  -4.6167
    -4.4086  -4.4083  -4.3959  -4.3957  -4.3934  -4.3929  -4.3714  -4.3707
    -4.3678  -4.3671  -4.3208  -4.3206  -4.3152  -4.3142  -4.3103  -4.3095
    -4.2773  -4.2770  -4.2578  -4.2553  -4.2452  -4.2393  -4.2262  -4.2244
    -4.2001  -4.1957  -4.1788  -4.1776  -4.1617  -4.1561  -4.1545  -4.1532
    -4.1463  -4.1460  -4.1351  -4.1336  -4.1185  -4.1159  -4.0962  -4.0961
    -4.0659  -4.0657  -4.0617  -4.0611  -4.0523  -4.0520  -4.0500  -4.0498
    -3.9289  -3.9148  -3.8838  -3.8767  -3.8656  -3.8446  -3.7338  -3.7100
    -3.6909  -3.6895  -3.6640  -3.6565  -3.5516  -3.5505  -3.5239  -3.5208
    -3.5077  -3.5076  -3.5038  -3.5036  -3.4968  -3.4966  -3.3390  -3.3388
    -3.3191  -3.3177  -3.3123  -3.3115  -3.2827  -3.2818  -3.2769  -3.2767
    -3.2545  -3.2516  -3.2405  -3.2372  -3.2285  -3.2187  -3.2115  -3.2070
    -3.1932  -3.1866  -3.1750  -3.1675  -3.1418  -3.1393  -3.1052  -3.1051
    -3.0942  -3.0940  -3.0826  -3.0825  -2.9400  -2.9400  -2.9374  -2.9373
    -2.9163  -2.9161  -2.9058  -2.9057  -2.8813  -2.8812  -2.8532  -2.8530
    -2.8503  -2.8501  -2.8251  -2.8241  -2.8216  -2.8206  -2.8026  -2.8024
    -2.7570  -2.7569  -2.7043  -2.7042  -2.6585  -2.6580  -2.5934  -2.5932
    -2.5867  -2.5867  -2.5462  -2.5462  -2.5151  -2.5149  -2.4791  -2.4789
    -2.3155  -2.3150  -2.2982  -2.2977  -2.2814  -2.2809  -2.2752  -2.2747
    -2.2603  -2.2597  -2.2197  -2.2187  -2.2180  -2.2108  -2.2082  -2.2082
    -2.2003  -2.1935  -2.1886  -2.1876  -2.1693  -2.1692  -2.1681  -2.1670
    -2.1426  -2.1405  -2.0158  -2.0153  -1.9956  -1.9956  -1.9453  -1.9450
    -1.9160  -1.9139  -1.9082  -1.9004  -1.8943  -1.8844  -1.8742  -1.8725
    -1.8347  -1.8332  -1.8083  -1.8082  -1.7855  -1.7854  -1.7403  -1.7402
    -1.6114  -1.6114  -1.6046  -1.6044  -1.5197  -1.5197  -1.5064  -1.5020
    -1.4916  -1.4780  -1.4656  -1.4519  -1.4302  -1.4255  -1.3780  -1.3772
    -1.3482  -1.3482  -1.3301  -1.3287  -1.2541  -1.2537  -1.2211  -1.2205
    -1.2109  -1.2096  -1.0942  -1.0942  -0.9591  -0.9591   0.0772   0.0773
     0.1596   0.1596   0.6991   0.6991   0.7179   0.7180   0.8776   0.8878
     0.8916   0.9046   0.9244   0.9290   0.9375   0.9379   0.9462   0.9471
     0.9571   0.9681   0.9838   0.9845   0.9991   1.0000   1.0139   1.0169
     1.0231   1.0253   1.0485   1.0524   1.0735   1.0757   1.1093   1.1094
     1.1414   1.1415   1.1426   1.1426   1.1499   1.1500   1.1845   1.1849
     1.1873   1.1880   1.2093   1.2097   1.2213   1.2220   1.2655   1.2661
     1.3065   1.3066   1.3180   1.3182   1.3327   1.3328   1.4088   1.4103
     1.4171   1.4180   1.4243   1.4250

     Writing output data file unfold.save/
 
     init_run     :      8.91s CPU     11.86s WALL (       1 calls)
     electrons    :   9201.46s CPU   9399.49s WALL (       1 calls)

     Called by init_run:
     wfcinit      :      0.00s CPU      0.00s WALL (       1 calls)
     potinit      :      1.62s CPU      1.79s WALL (       1 calls)
     hinit0       :      7.07s CPU      9.84s WALL (       1 calls)

     Called by electrons:
     c_bands      :   9201.43s CPU   9399.46s WALL (       1 calls)
     v_of_rho     :      0.05s CPU      0.07s WALL (       1 calls)

     Called by c_bands:
     init_us_2    :      0.48s CPU      0.49s WALL (      56 calls)
     cegterg      :   8993.91s CPU   9185.56s WALL (     187 calls)

     Called by sum_band:

     Called by *egterg:
     h_psi        :   3947.28s CPU   4041.67s WALL (    3095 calls)
     g_psi        :     10.13s CPU     10.19s WALL (    2852 calls)
     cdiaghg      :   2247.35s CPU   2306.57s WALL (    2908 calls)

     Called by h_psi:
     h_psi:pot    :   3934.45s CPU   4026.52s WALL (    3095 calls)
     h_psi:calbec :    611.92s CPU    624.43s WALL (    3095 calls)
     vloc_psi     :   2688.24s CPU   2752.54s WALL (    3095 calls)
     add_vuspsi   :    634.25s CPU    649.52s WALL (    3095 calls)

     General routines
     calbec       :    611.90s CPU    624.41s WALL (    3095 calls)
     fft          :      6.92s CPU      9.70s WALL (      13 calls)
     fftw         :   2607.32s CPU   2669.91s WALL ( 4106244 calls)
 
     Parallel routines
     fft_scatt_xy :     68.97s CPU     70.75s WALL ( 4106257 calls)
     fft_scatt_yz :   2144.80s CPU   2200.46s WALL ( 4106257 calls)
 
     PWSCF        :      2h37m CPU      2h41m WALL

 
   This run was terminated on:   0: 8:53  10Jun2021            

=------------------------------------------------------------------------------=
   JOB DONE.
=------------------------------------------------------------------------------=
