------------------------------------------------------------
          Invoking FHI-aims ...

          When using FHI-aims, please cite the following reference:

            Volker Blum, Ralf Gehrke, Felix Hanke, Paula Havu,
            Ville Havu, Xinguo Ren, Karsten Reuter, and Matthias Scheffler,
            'Ab Initio Molecular Simulations with Numeric Atom-Centered Orbitals',
            Computer Physics Communications 180, 2175-2196 (2009)

          In addition, many other developments in FHI-aims are likely important for
          your particular application. A partial list of references is given at the end of
          this file. Thank you for giving credit to the authors of these developments.

          For any questions about FHI-aims, please visit our slack channel at

            https://fhi-aims.slack.com

          and our main development and support site at

            https://aims-git.rz-berlin.mpg.de .

          The latter site, in particular, has a wiki to collect information, as well
          as an issue tracker to log discussions, suggest improvements, and report issues
          or bugs. https://aims-git.rz-berlin.mpg.de is also the main development site
          of the project and all new and updated code versions can be obtained there.
          Please send an email to aims-coordinators@fhi-berlin.mpg.de and we will add
          you to these sites. They are for you and everyone is welcome there.

------------------------------------------------------------



  Date     :  20210808, Time     :  142439.366
  Time zero on CPU 1             :   0.110021000000000E+00  s.
  Internal wall clock time zero  :           397664679.366  s.

  FHI-aims created a unique identifier for this run for later identification
  aims_uuid : 2211A2A8-3997-4F25-A542-C4B91A5D4C48

  Build configuration of the current instance of FHI-aims
  -------------------------------------------------------
  FHI-aims version      : 210513
  Commit number         : 1a2d0b161
  CMake host system     : Linux-4.12.14-122.63-default
  CMake version         : 3.5.2
  Fortran compiler      : /mpcdf/soft/SLE_12/packages/x86_64/intel_parallel_studio/2020.1/compilers_and_libraries_2020.1.217/linux/mpi/intel64/bin/mpiifort (Intel) version 19.1.0.20200306
  Fortran compiler flags: -O3 -ip -fp-model precise
  C compiler            : /mpcdf/soft/SLE_12/packages/x86_64/intel/19.1.1/bin/icc (Intel) version 19.1.0.20200306
  C compiler flags      : -O3 -ip -fp-model precise -std=gnu99
  C++ compiler          : /mpcdf/soft/SLE_12/packages/x86_64/intel/19.1.1/bin/icpc (Intel) version 19.1.0.20200306
  C++ compiler flags    : -O3 -ip -fp-model precise -std=gnu99
  Using MPI
  Using ScaLAPACK
  Using LibXC
  Using i-PI
  Using RLSY
  Linking against: /mpcdf/soft/SLE_12/packages/x86_64/intel_parallel_studio/2020.1/mkl/lib/intel64/libmkl_intel_lp64.so
                   /mpcdf/soft/SLE_12/packages/x86_64/intel_parallel_studio/2020.1/mkl/lib/intel64/libmkl_sequential.so
                   /mpcdf/soft/SLE_12/packages/x86_64/intel_parallel_studio/2020.1/mkl/lib/intel64/libmkl_core.so
                   /mpcdf/soft/SLE_12/packages/x86_64/intel_parallel_studio/2020.1/mkl/lib/intel64/libmkl_blacs_intelmpi_lp64.so
                   /mpcdf/soft/SLE_12/packages/x86_64/intel_parallel_studio/2020.1/mkl/lib/intel64/libmkl_scalapack_lp64.so

  Using      160 parallel tasks.
  Task        0 on host co2586 reporting.
  Task        1 on host co2586 reporting.
  Task        2 on host co2586 reporting.
  Task        3 on host co2586 reporting.
  Task        4 on host co2586 reporting.
  Task        5 on host co2586 reporting.
  Task        6 on host co2586 reporting.
  Task        7 on host co2586 reporting.
  Task        8 on host co2586 reporting.
  Task        9 on host co2586 reporting.
  Task       10 on host co2586 reporting.
  Task       11 on host co2586 reporting.
  Task       12 on host co2586 reporting.
  Task       13 on host co2586 reporting.
  Task       14 on host co2586 reporting.
  Task       15 on host co2586 reporting.
  Task       16 on host co2586 reporting.
  Task       17 on host co2586 reporting.
  Task       18 on host co2586 reporting.
  Task       19 on host co2586 reporting.
  Task       20 on host co2586 reporting.
  Task       21 on host co2586 reporting.
  Task       22 on host co2586 reporting.
  Task       23 on host co2586 reporting.
  Task       24 on host co2586 reporting.
  Task       25 on host co2586 reporting.
  Task       26 on host co2586 reporting.
  Task       27 on host co2586 reporting.
  Task       28 on host co2586 reporting.
  Task       29 on host co2586 reporting.
  Task       30 on host co2586 reporting.
  Task       31 on host co2586 reporting.
  Task       32 on host co2586 reporting.
  Task       33 on host co2586 reporting.
  Task       34 on host co2586 reporting.
  Task       35 on host co2586 reporting.
  Task       36 on host co2586 reporting.
  Task       37 on host co2586 reporting.
  Task       38 on host co2586 reporting.
  Task       39 on host co2586 reporting.
  Task       40 on host co2587 reporting.
  Task       41 on host co2587 reporting.
  Task       42 on host co2587 reporting.
  Task       43 on host co2587 reporting.
  Task       44 on host co2587 reporting.
  Task       45 on host co2587 reporting.
  Task       46 on host co2587 reporting.
  Task       47 on host co2587 reporting.
  Task       48 on host co2587 reporting.
  Task       49 on host co2587 reporting.
  Task       50 on host co2587 reporting.
  Task       51 on host co2587 reporting.
  Task       52 on host co2587 reporting.
  Task       53 on host co2587 reporting.
  Task       54 on host co2587 reporting.
  Task       55 on host co2587 reporting.
  Task       56 on host co2587 reporting.
  Task       57 on host co2587 reporting.
  Task       58 on host co2587 reporting.
  Task       59 on host co2587 reporting.
  Task       60 on host co2587 reporting.
  Task       61 on host co2587 reporting.
  Task       62 on host co2587 reporting.
  Task       63 on host co2587 reporting.
  Task       64 on host co2587 reporting.
  Task       65 on host co2587 reporting.
  Task       66 on host co2587 reporting.
  Task       67 on host co2587 reporting.
  Task       68 on host co2587 reporting.
  Task       69 on host co2587 reporting.
  Task       70 on host co2587 reporting.
  Task       71 on host co2587 reporting.
  Task       72 on host co2587 reporting.
  Task       73 on host co2587 reporting.
  Task       74 on host co2587 reporting.
  Task       75 on host co2587 reporting.
  Task       76 on host co2587 reporting.
  Task       77 on host co2587 reporting.
  Task       78 on host co2587 reporting.
  Task       79 on host co2587 reporting.
  Task       80 on host co2588 reporting.
  Task       81 on host co2588 reporting.
  Task       82 on host co2588 reporting.
  Task       83 on host co2588 reporting.
  Task       84 on host co2588 reporting.
  Task       85 on host co2588 reporting.
  Task       86 on host co2588 reporting.
  Task       87 on host co2588 reporting.
  Task       88 on host co2588 reporting.
  Task       89 on host co2588 reporting.
  Task       90 on host co2588 reporting.
  Task       91 on host co2588 reporting.
  Task       92 on host co2588 reporting.
  Task       93 on host co2588 reporting.
  Task       94 on host co2588 reporting.
  Task       95 on host co2588 reporting.
  Task       96 on host co2588 reporting.
  Task       97 on host co2588 reporting.
  Task       98 on host co2588 reporting.
  Task       99 on host co2588 reporting.
  Task      100 on host co2588 reporting.
  Task      101 on host co2588 reporting.
  Task      102 on host co2588 reporting.
  Task      103 on host co2588 reporting.
  Task      104 on host co2588 reporting.
  Task      105 on host co2588 reporting.
  Task      106 on host co2588 reporting.
  Task      107 on host co2588 reporting.
  Task      108 on host co2588 reporting.
  Task      109 on host co2588 reporting.
  Task      110 on host co2588 reporting.
  Task      111 on host co2588 reporting.
  Task      112 on host co2588 reporting.
  Task      113 on host co2588 reporting.
  Task      114 on host co2588 reporting.
  Task      115 on host co2588 reporting.
  Task      116 on host co2588 reporting.
  Task      117 on host co2588 reporting.
  Task      118 on host co2588 reporting.
  Task      119 on host co2588 reporting.
  Task      120 on host co2618 reporting.
  Task      121 on host co2618 reporting.
  Task      122 on host co2618 reporting.
  Task      123 on host co2618 reporting.
  Task      124 on host co2618 reporting.
  Task      125 on host co2618 reporting.
  Task      126 on host co2618 reporting.
  Task      127 on host co2618 reporting.
  Task      128 on host co2618 reporting.
  Task      129 on host co2618 reporting.
  Task      130 on host co2618 reporting.
  Task      131 on host co2618 reporting.
  Task      132 on host co2618 reporting.
  Task      133 on host co2618 reporting.
  Task      134 on host co2618 reporting.
  Task      135 on host co2618 reporting.
  Task      136 on host co2618 reporting.
  Task      137 on host co2618 reporting.
  Task      138 on host co2618 reporting.
  Task      139 on host co2618 reporting.
  Task      140 on host co2618 reporting.
  Task      141 on host co2618 reporting.
  Task      142 on host co2618 reporting.
  Task      143 on host co2618 reporting.
  Task      144 on host co2618 reporting.
  Task      145 on host co2618 reporting.
  Task      146 on host co2618 reporting.
  Task      147 on host co2618 reporting.
  Task      148 on host co2618 reporting.
  Task      149 on host co2618 reporting.
  Task      150 on host co2618 reporting.
  Task      151 on host co2618 reporting.
  Task      152 on host co2618 reporting.
  Task      153 on host co2618 reporting.
  Task      154 on host co2618 reporting.
  Task      155 on host co2618 reporting.
  Task      156 on host co2618 reporting.
  Task      157 on host co2618 reporting.
  Task      158 on host co2618 reporting.
  Task      159 on host co2618 reporting.

  Performing system and environment tests:
  | Environment variable OMP_NUM_THREADS correctly set to 1.
  | Checking for ScaLAPACK...
  | Testing pdtran()...
  | All pdtran() tests passed.

  Obtaining array dimensions for all initial allocations:
  
  -----------------------------------------------------------------------
  Parsing control.in (first pass over file, find array dimensions only).
  The contents of control.in will be repeated verbatim below
  unless switched off by setting 'verbatim_writeout .false.' .
  in the first line of control.in .
  -----------------------------------------------------------------------
  
  ##### Physical settings  ################
  xc                 pbe
  spin               none
  charge      0.0
  relativistic       atomic_zora scalar
  #elsi_restart read
  # SCF settings
  
  sc_accuracy_rho    1E-4
  sc_accuracy_eev    1E-3
  sc_accuracy_etot   1E-4
  sc_accuracy_forces 1E-3
  #vdw_correction_hirshfeld
  occupation_type gaussian       0.01
  # k-grid settings  (to be adjusted)
  k_grid  4 4 1
  #empty_states 8
  include_spin_orbit non_self_consistent
  
  #output cube stm -0.5
  #mixer   pulay
  #n_max_pulay        12 # high for metal
  #charge_mix_param   0.07 #low for metal
  
  #output cube stm -0.5
  many_body_dispersion_nl    beta=0.81
  ################################################################################
  #
  #  FHI-aims code project
  # Volker Blum, Fritz Haber Institute Berlin, 2009
  #
  #  Suggested "tight" defaults for S atom (to be pasted into control.in file)
  #
  #  Revised Jan 04, 2011, following tests (SiC) done by Lydia Nemec:
  #     d and g functions of tier 2 now enabled by default.
  #
  ################################################################################
    species        S
  #     global species definitions
      nucleus             16
      mass                32.065
  #
      l_hartree           6
  #
      cut_pot             4.0          2.0  1.0
      basis_dep_cutoff    1e-4
  #
      radial_base         44 7.0
      radial_multiplier   2
      angular_grids       specified
        division   0.4665  110
        division   0.5810  194
        division   0.7139  302
        division   0.8274  434
  #      division   0.9105  590
  #      division   1.0975  770
  #      division   1.2028  974
  #      outer_grid  974
        outer_grid  434
  ################################################################################
  #
  #  Definition of "minimal" basis
  #
  ################################################################################
  #     valence basis states
      valence      3  s   2.
      valence      3  p   4.
  #     ion occupancy
      ion_occ      3  s   1.
      ion_occ      3  p   3.
  ################################################################################
  #
  #  Suggested additional basis functions. For production calculations,
  #  uncomment them one after another (the most important basis functions are
  #  listed first).
  #
  #  Constructed for dimers: 1.6 A, 1.9 A, 2.5 A, 3.25 A, 4.0 A
  #
  ################################################################################
  #  "First tier" - improvements: -652.81 meV to -45.53 meV
       ionic 3 d auto
       hydro 2 p 1.8
       hydro 4 f 7
       ionic 3 s auto
  #  "Second tier" - improvements: -30.20 meV to -1.74 meV
       hydro 4 d 6.2
       hydro 5 g 10.8
  #     hydro 4 p 4.9
  #     hydro 5 f 10
  #     hydro 1 s 0.8
  #  "Third tier" - improvements: -1.04 meV to -0.20 meV
  #     hydro 3 d 3.9
  #     hydro 3 d 2.7
  #     hydro 5 g 12
  #     hydro 4 p 10.4
  #     hydro 5 f 12.4
  #     hydro 2 s 1.9
  #  "Fourth tier" - improvements: -0.35 meV to -0.06 meV
  #     hydro 4 d 10.4
  #     hydro 4 p 7.2
  #     hydro 4 d 10
  #     hydro 5 g 19.2
  #     hydro 4 s 12
  
  ################################################################################
  #
  # For methods that use the localized form of the "resolution of identity" for
  # the two-electron Coulomb operator (RI_method LVL), particularly Hartree-Fock and
  # hybrid density functional calculations, the highest accuracy can be obtained by
  # uncommenting the line beginning with "for_aux"  below, thus adding an extra g radial
  # function to the construction of the product basis set for the expansion.
  # See Ref. New J. Phys. 17, 093020 (2015) for more information, particularly Figs. 1 and 6.
  #
  ################################################################################
  #
  # for_aux hydro 5 g 6.0
  ################################################################################
  #
  #  FHI-aims code project
  # Volker Blum, Fritz Haber Institute Berlin, 2009
  #
  #  Suggested "tight" defaults for Mo atom (to be pasted into control.in file)
  #
  ################################################################################
    species        Mo
  #     global species definitions
      nucleus             42
      mass                95.94
  #
      l_hartree           6
  #
      cut_pot             4.0  2.0  1.0
      basis_dep_cutoff    1e-4
  #
      radial_base         59 7.0
      radial_multiplier   2
      angular_grids specified
        division   0.3117   50
        division   0.6750  110
        division   1.0351  194
        division   1.2073  302
        division   1.6402  434
  #      division   1.9185  590
  #      division   2.0237  770
  #      division   2.0980  974
  #      division   2.7972 1202
  #      outer_grid  974
        outer_grid  434
  ################################################################################
  #
  #  Definition of "minimal" basis
  #
  ################################################################################
  #     valence basis states
      valence      5  s   1.
      valence      4  p   6.
      valence      4  d   5.
  #     ion occupancy
      ion_occ     5  s   0.
      ion_occ     4  p   6.
      ion_occ     4  d   4.
  ################################################################################
  #
  #  Suggested additional basis functions. For production calculations,
  #  uncomment them one after another (the most important basis functions are
  #  listed first).
  #
  #  Constructed for dimers: 1.675 A, 1.9 A, 2.375 A, 3.00 A, 4.00 A
  #
  ################################################################################
  #  "First tier"  - max. impr. -711.23  meV, min. impr. -21.07 meV
       hydro 4 f 8.4
       hydro 3 d 2.8
       ionic 5 p auto
       hydro 5 g 12
       ionic 5 s auto
  #  "Second tier" - max. impr. -39.38  meV, min. impr. -2.68 meV
  #     hydro 4 f 12.4
  #     hydro 3 d 3.3
  #     hydro 6 h 17.2
  #     hydro 4 f 7.6
  #     hydro 3 p 3.0
  #     hydro 1 s 0.65
  #  "Third tier"  - max. impr. -5.50 meV, min. impr. -0.47 meV
  #     hydro 4 f 29.2
  #     hydro 5 g 11.2
  #     hydro 3 d 6.8
  #     hydro 6 h 14.8
  #     hydro 2 p 2.3
  #     hydro 4 s 3.8
  #  "Fourth tier"  - max. impr. -0.58 meV, min. impr. -0.19 meV
  #     hydro 5 f 6.8
  #     hydro 5 d 14.8
  #     hydro 6 s 7.8
  #     hydro 5 g 20.8
  #     hydro 5 d 10.4
  #     hydro 5 p 9.8
  #  Further functions - -0.17 meV and below
  #     hydro 5 d 3.2
  ################################################################################
  #
  #  FHI-aims code project
  # Volker Blum, Fritz Haber Institute Berlin, 2009
  #
  #  Suggested "tight" defaults for W atom (to be pasted into control.in file)
  #
  ################################################################################
    species          W
  #     global species definitions
      nucleus        74
      mass           183.84
  #
      l_hartree      6
  #
      cut_pot        4.0  2.0  1.0
      basis_dep_cutoff    1e-4
  #
      radial_base    71  7.0
      radial_multiplier  2
      angular_grids specified
        division   0.2901   50
        division   0.6986  110
        division   1.0528  194
        division   1.2659  302
        division   1.5223  434
  #      division   1.8111  590
  #      division   2.0105  770
  #      division   2.0413  974
  #      division   2.8804 1202
  #      outer_grid  974
        outer_grid  434
  ################################################################################
  #
  #  Definition of "minimal" basis
  #
  ################################################################################
  #     valence basis states
      valence      6  s   2.
      valence      5  p   6.
      valence      5  d   4.
      valence      4  f  14.
  #     ion occupancy
      ion_occ      6  s   1.
      ion_occ      5  p   6.
      ion_occ      5  d   3.
      ion_occ      4  f  14.
  ################################################################################
  #
  #  Suggested additional basis functions. For production calculations,
  #  uncomment them one after another (the most important basis functions are
  #  listed first).
  #
  #  Constructed for dimers: 1.775, 1.99, 2.50, 3.25, 4.50 AA
  #
  ################################################################################
  #
  #  "First tier" - improvements: -603.77 meV to -28.99 meV
       hydro 4 f 7.8
       hydro 4 d 5.8
       ionic 6 p auto
       hydro 5 g 12.4
       ionic 6 s auto
  #  "Second tier" - improvements: -28.30 meV to -1.31 meV
  #     hydro 6 h 16.8
  #     ionic 5 d auto
  #     hydro 4 f 8.6
  #     hydro 5 g 16.8
  #     hydro 5 d 8.4
  #     hydro 3 p 3.3
  #     hydro 1 s 0.55
  #  "Third tier" - max. impr. -1.79 meV, min. impr. -0.26 meV
  #     hydro 5 f 10.8
  #     hydro 5 g 34.4
  #     hydro 6 h 20.8
  #     hydro 5 g 12.8
  #     hydro 2 p 1.6
  #     hydro 4 s 4.7
  #     hydro 6 d 18.4
  #  "Fourth tier" -0.46 max. impr. - meV, min. impr. -0.09 meV
  #     hydro 6 h 21.6
  #     hydro 5 f 22.4
  #     hydro 4 f 4
  #     hydro 5 p 9.6
  #     hydro 6 d 17.2
  #     hydro 3 p 5.2
  #     hydro 5 g 4.7
  #     hydro 6 s 7.6
  ################################################################################
  #
  #  FHI-aims code project
  # Volker Blum, Fritz Haber Institute Berlin, 2009
  #
  #  Suggested "tight" defaults for Se atom (to be pasted into control.in file)
  #
  ################################################################################
    species        Se
  #     global species definitions
      nucleus             34
      mass                78.96
  #
      l_hartree           6
  #
      cut_pot             4.0          2.0  1.0
      basis_dep_cutoff    1e-4
  #
      radial_base         55 7.0
      radial_multiplier   2
      angular_grids       specified
        division   0.0830  110
        division   0.1357  194
        division   0.7377  302
        division   0.8610  434
  #      division   0.9640  590
  #      division   1.0773  770
  #      division   2.5539  974
  #      outer_grid  974
        outer_grid  434
  ################################################################################
  #
  #  Definition of "minimal" basis
  #
  ################################################################################
  #     valence basis states
      valence      4  s   2.
      valence      4  p   4.
      valence      3  d  10.
  #     ion occupancy
      ion_occ      4  s   1.
      ion_occ      4  p   3.
      ion_occ      3  d  10.
  ################################################################################
  #
  #  Suggested additional basis functions. For production calculations,
  #  uncomment them one after another (the most important basis functions are
  #  listed first).
  #
  #  Constructed for dimers: 1.85 A, 2.15 A, 2.50 A, 3.00 A, 4.00 A
  #
  ################################################################################
  #  "First tier" - improvements: -336.21 meV to -36.85 meV
       hydro 3 d 4.3
       hydro 2 p 1.6
       hydro 4 f 7.2
       ionic 4 s auto
  #  "Second tier" - improvements: -14.39 meV to -1.49 meV
  #     hydro 5 g 10.4
  #     hydro 4 p 4.5
  #     hydro 4 d 6.2
  #     hydro 4 f 11.2
  #     hydro 1 s 0.65
  #     hydro 6 h 15.2
  #  "Third tier" - improvements: -0.46 meV and below
  #     hydro 5 g 14.4
  #     ionic 4 d auto
  #     hydro 4 f 22.4
  #     hydro 5 f 7.4
  #     hydro 5 p 8
  #     hydro 5 s 9.4
  #  "Fourth tier" - improvements: -0.12 meV and below
  #     hydro 5 d 11.6
  #     hydro 6 h 18
  #     hydro 4 p 4
  #     hydro 5 f 16
  #     hydro 4 s 3.9
  
  
  compute_forces .true.
  final_forces_cleaned .true.
  
  -----------------------------------------------------------------------
  Completed first pass over input file control.in .
  -----------------------------------------------------------------------
  
  
  -----------------------------------------------------------------------
  Parsing geometry.in (first pass over file, find array dimensions only).
  The contents of geometry.in will be repeated verbatim below
  unless switched off by setting 'verbatim_writeout .false.' .
  in the first line of geometry.in .
  -----------------------------------------------------------------------
  
  #
  # temporary structure-file for finite-difference calculation of forces
  # displacement   0.0025 of \# atom    72 direction     0
  #
  lattice_vector   16.60000000    0.00000000    0.00000000
  lattice_vector   -8.30000000   14.37602170    0.00000000
  lattice_vector    0.00000000    0.00000000  100.00000000
  atom   -0.00047389    0.96821934    2.67553288  Mo
  atom    1.65998768    1.96070579    4.31957021  Se
  atom    1.65998758    1.92042327    1.00304332  Se
  atom   -1.64782272    3.85286410    2.67371123  Mo
  atom    0.05349798    4.88672243    4.29683390  Se
  atom   -0.01486564    4.81472151    0.96658675  Se
  atom   -3.29718147    6.70973773    2.67371685  Mo
  atom   -1.55114571    7.66616726    4.29684802  Se
  atom   -1.64768481    7.64297497    0.96657133  Se
  atom   -4.97170495    9.57871235    2.67552592  Mo
  atom   -3.28191449   10.52043364    4.31955202  Se
  atom   -3.31677314   10.54056320    1.00304446  Se
  atom   -6.63997013   12.45919373    2.67534017  Mo
  atom   -4.97683374   13.41943799    4.33725967  Se
  atom   -4.97623640   13.41977984    1.01381180  Se
  atom    3.32046690    0.96823076    2.67553915  Mo
  atom    4.96683861    1.93575857    4.34632215  Se
  atom    4.98660905    1.92265574    1.01908995  Se
  atom    1.66000906    3.87704694    2.63219178  Mo
  atom    3.26647841    4.88675071    4.29683766  Se
  atom    3.33483132    4.81475883    0.96659190  Se
  atom    0.07688187    6.75316397    2.58178032  Mo
  atom    1.66000604    7.66725238    0.86800557  Se
  atom   -1.62228658    9.56226199    2.63219571  Mo
  atom    0.05533447   10.44875480    4.29684199  Se
  atom    0.02714045   10.54394644    0.96656207  Se
  atom   -3.31122081   12.45467387    2.67552755  Mo
  atom   -1.65015979   13.39674382    4.34634076  Se
  atom   -1.65159693   13.42041017    1.01909745  Se
  atom    6.63860366    0.95758172    2.69253229  Mo
  atom    8.29562974    1.91431635    4.36224410  Se
  atom    8.30167217    1.91778988    1.03351964  Se
  atom    4.96775965    3.85288363    2.67371778  Mo
  atom    6.62064441    4.80317854    4.35041854  Se
  atom    6.64337600    4.79004046    1.02065001  Se
  atom    3.24313146    6.75319041    2.58178393  Mo
  atom    4.87113897    7.66614933    4.29685202  Se
  atom    4.96768890    7.64297144    0.96658501  Se
  atom    1.65997460    9.49532553    2.58176340  Mo
  atom    3.26466922   10.44874084    4.29682393  Se
  atom    3.29286059   10.54394103    0.96656357  Se
  atom    0.01062436   12.43904202    2.67372223  Mo
  atom    1.66002035   13.39534678    4.35043861  Se
  atom    1.66001867   13.42157707    1.02062926  Se
  atom    9.95996586    0.95406071    2.69736960  Mo
  atom   11.62433184    1.91430601    4.36224700  Se
  atom   11.61830223    1.91778935    1.03352339  Se
  atom    8.29622043    3.83579810    2.69737763  Mo
  atom    9.96000153    4.79704466    4.36224049  Se
  atom    9.95998892    4.79006139    1.03352059  Se
  atom    6.61716378    6.70976492    2.67371573  Mo
  atom    8.27698481    7.66913305    4.34632030  Se
  atom    8.29820667    7.65854706    1.01908075  Se
  atom    4.94233037    9.56227813    2.63219946  Mo
  atom    6.60195791   10.52043946    4.31957440  Se
  atom    6.63681960   10.54058206    1.00303567  Se
  atom    3.30940862   12.43903132    2.67371128  Mo
  atom    4.97017550   13.39675289    4.34632312  Se
  atom    4.97164159   13.42040635    1.01910177  Se
  atom   13.28137359    0.95761813    2.69253653  Mo
  atom   14.95319291    1.93574891    4.34633495  Se
  atom   14.93340737    1.92263978    1.01910547  Se
  atom   11.62378132    3.83580242    2.69736964  Mo
  atom   13.29934032    4.80317454    4.35044309  Se
  atom   13.27659116    4.79005197    1.02062879  Se
  atom    9.96002798    6.71043168    2.69252408  Mo
  atom   11.64300476    7.66913635    4.34632621  Se
  atom   11.62178898    7.65856110    1.01909326  Se
  atom    8.29168383    9.57865355    2.67552464  Mo
  atom    9.96002018   10.53873998    4.33725348  Se
  atom    9.96001864   10.53805815    1.01379940  Se
  atom    6.63123147   12.45468977    2.67554314  Mo
  atom    8.29931508   13.41942106    4.33725472  Se
  atom    8.29621178   13.41975627    1.01380452  Se
  
  -----------------------------------------------------------------------
  Completed first pass over input file geometry.in .
  -----------------------------------------------------------------------
  

  Basic array size parameters:
  | Number of species                 :        4
  | Number of atoms                   :       74
  | Number of lattice vectors         :        3
  | Max. basis fn. angular momentum   :        4
  | Max. atomic/ionic basis occupied n:        6
  | Max. number of basis fn. types    :        3
  | Max. radial fns per species/type  :       14
  | Max. logarithmic grid size        :     1483
  | Max. radial integration grid size :      143
  | Max. angular integration grid size:      434
  | Max. angular grid division number :        8
  | Radial grid for Hartree potential :     1483
  | Number of spin channels           :        1

------------------------------------------------------------
          Reading file control.in.
------------------------------------------------------------
  XC: Using PBE gradient-corrected functionals.
  Spin treatment: No spin polarisation.
  Charge =   0.000000E+00: Neutral system requested explicitly.
  Scalar relativistic treatment of kinetic energy: on-site free-atom approximation to ZORA.
  Convergence accuracy of self-consistent charge density:  0.1000E-03
  Convergence accuracy of sum of eigenvalues:  0.1000E-02
  Convergence accuracy of total energy:  0.1000E-03
  Convergence accuracy of forces:  0.1000E-02
  Occupation type: Gaussian broadening, width =   0.100000E-01 eV.
  Found k-point grid:         4         4         1
  Calculating non-self-consistent second-variational spin-orbit coupling after scf-cycle
  Using libMBD for calculating MBD and TS energies
 
  Reading configuration options for species S                   .
  | Found nuclear charge :  16.0000
  | Found atomic mass :    32.0650000000000      amu
  | Found l_max for Hartree potential  :   6
  | Found cutoff potl. onset [A], width [A], scale factor :    4.00000    2.00000    1.00000
  | Threshold for basis-dependent cutoff potential is   0.100000E-03
  | Found data for basic radial integration grid :    44 points, outermost radius =    7.000 A
  | Found multiplier for basic radial grid :   2
  | Found angular grid specification: user-specified.
  | Specified grid contains     5 separate shells.
  | Check grid settings after all constraints further below.
  | Found free-atom valence shell :  3 s   2.000
  | Found free-atom valence shell :  3 p   4.000
  | Found free-ion valence shell :  3 s   1.000
  | Found free-ion valence shell :  3 p   3.000
  | Found ionic basis function :  3 d , default cutoff radius.
  | Found hydrogenic basis function :  2 p   1.800
  | Found hydrogenic basis function :  4 f   7.000
  | Found ionic basis function :  3 s , default cutoff radius.
  | Found hydrogenic basis function :  4 d   6.200
  | Found hydrogenic basis function :  5 g  10.800
  Species S                   : Missing cutoff potential type.
  Defaulting to exp(1/x)/(1-x)^2 type cutoff potential.
  Species S : No 'logarithmic' tag. Using default grid for free atom:
  | Default logarithmic grid data [bohr] : 0.1000E-03 0.1000E+03 0.1012E+01
  | Will include ionic basis functions of  2.0-fold positive S                    ion.
  Species S : On-site basis accuracy parameter (for Gram-Schmidt orthonormalisation) not specified.
  Using default value basis_acc =  0.1000000E-03.
  Species S                   : Using default innermost maximum threshold i_radial=  2 for radial functions.
  Species S                   : Default cutoff onset for free atom density etc. : 0.40000000E+01 AA.
  Species S                   : Basic radial grid will be enhanced according to radial_multiplier =   2, to contain    89 grid points.
 
  Reading configuration options for species Mo                  .
  | Found nuclear charge :  42.0000
  | Found atomic mass :    95.9400000000000      amu
  | Found l_max for Hartree potential  :   6
  | Found cutoff potl. onset [A], width [A], scale factor :    4.00000    2.00000    1.00000
  | Threshold for basis-dependent cutoff potential is   0.100000E-03
  | Found data for basic radial integration grid :    59 points, outermost radius =    7.000 A
  | Found multiplier for basic radial grid :   2
  | Found angular grid specification: user-specified.
  | Specified grid contains     6 separate shells.
  | Check grid settings after all constraints further below.
  | Found free-atom valence shell :  5 s   1.000
  | Found free-atom valence shell :  4 p   6.000
  | Found free-atom valence shell :  4 d   5.000
  | Found free-ion valence shell :  5 s   0.000
  | Found free-ion valence shell :  4 p   6.000
  | Found free-ion valence shell :  4 d   4.000
  | Found hydrogenic basis function :  4 f   8.400
  | Found hydrogenic basis function :  3 d   2.800
  | Found ionic basis function :  5 p , default cutoff radius.
  | Found hydrogenic basis function :  5 g  12.000
  | Found ionic basis function :  5 s , default cutoff radius.
  Species Mo                  : Missing cutoff potential type.
  Defaulting to exp(1/x)/(1-x)^2 type cutoff potential.
  Species Mo: No 'logarithmic' tag. Using default grid for free atom:
  | Default logarithmic grid data [bohr] : 0.1000E-03 0.1000E+03 0.1012E+01
  | Will include ionic basis functions of  2.0-fold positive Mo                   ion.
  Species Mo: On-site basis accuracy parameter (for Gram-Schmidt orthonormalisation) not specified.
  Using default value basis_acc =  0.1000000E-03.
  Species Mo                  : Using default innermost maximum threshold i_radial=  2 for radial functions.
  Species Mo                  : Default cutoff onset for free atom density etc. : 0.40000000E+01 AA.
  Species Mo                  : Basic radial grid will be enhanced according to radial_multiplier =   2, to contain   119 grid points.
 
  Reading configuration options for species W                   .
  | Found nuclear charge :  74.0000
  | Found atomic mass :    183.840000000000      amu
  | Found l_max for Hartree potential  :   6
  | Found cutoff potl. onset [A], width [A], scale factor :    4.00000    2.00000    1.00000
  | Threshold for basis-dependent cutoff potential is   0.100000E-03
  | Found data for basic radial integration grid :    71 points, outermost radius =    7.000 A
  | Found multiplier for basic radial grid :   2
  | Found angular grid specification: user-specified.
  | Specified grid contains     6 separate shells.
  | Check grid settings after all constraints further below.
  | Found free-atom valence shell :  6 s   2.000
  | Found free-atom valence shell :  5 p   6.000
  | Found free-atom valence shell :  5 d   4.000
  | Found free-atom valence shell :  4 f  14.000
  | Found free-ion valence shell :  6 s   1.000
  | Found free-ion valence shell :  5 p   6.000
  | Found free-ion valence shell :  5 d   3.000
  | Found free-ion valence shell :  4 f  14.000
  | Found hydrogenic basis function :  4 f   7.800
  | Found hydrogenic basis function :  4 d   5.800
  | Found ionic basis function :  6 p , default cutoff radius.
  | Found hydrogenic basis function :  5 g  12.400
  | Found ionic basis function :  6 s , default cutoff radius.
  Species W                   : Missing cutoff potential type.
  Defaulting to exp(1/x)/(1-x)^2 type cutoff potential.
  Species W : No 'logarithmic' tag. Using default grid for free atom:
  | Default logarithmic grid data [bohr] : 0.1000E-03 0.1000E+03 0.1012E+01
  | Will include ionic basis functions of  2.0-fold positive W                    ion.
  Species W : On-site basis accuracy parameter (for Gram-Schmidt orthonormalisation) not specified.
  Using default value basis_acc =  0.1000000E-03.
  Species W                   : Using default innermost maximum threshold i_radial=  2 for radial functions.
  Species W                   : Default cutoff onset for free atom density etc. : 0.40000000E+01 AA.
  Species W                   : Basic radial grid will be enhanced according to radial_multiplier =   2, to contain   143 grid points.
 
  Reading configuration options for species Se                  .
  | Found nuclear charge :  34.0000
  | Found atomic mass :    78.9600000000000      amu
  | Found l_max for Hartree potential  :   6
  | Found cutoff potl. onset [A], width [A], scale factor :    4.00000    2.00000    1.00000
  | Threshold for basis-dependent cutoff potential is   0.100000E-03
  | Found data for basic radial integration grid :    55 points, outermost radius =    7.000 A
  | Found multiplier for basic radial grid :   2
  | Found angular grid specification: user-specified.
  | Specified grid contains     5 separate shells.
  | Check grid settings after all constraints further below.
  | Found free-atom valence shell :  4 s   2.000
  | Found free-atom valence shell :  4 p   4.000
  | Found free-atom valence shell :  3 d  10.000
  | Found free-ion valence shell :  4 s   1.000
  | Found free-ion valence shell :  4 p   3.000
  | Found free-ion valence shell :  3 d  10.000
  | Found hydrogenic basis function :  3 d   4.300
  | Found hydrogenic basis function :  2 p   1.600
  | Found hydrogenic basis function :  4 f   7.200
  | Found ionic basis function :  4 s , default cutoff radius.
  Species Se                  : Missing cutoff potential type.
  Defaulting to exp(1/x)/(1-x)^2 type cutoff potential.
  Species Se: No 'logarithmic' tag. Using default grid for free atom:
  | Default logarithmic grid data [bohr] : 0.1000E-03 0.1000E+03 0.1012E+01
  | Will include ionic basis functions of  2.0-fold positive Se                   ion.
  Species Se: On-site basis accuracy parameter (for Gram-Schmidt orthonormalisation) not specified.
  Using default value basis_acc =  0.1000000E-03.
  Species Se                  : Using default innermost maximum threshold i_radial=  2 for radial functions.
  Species Se                  : Default cutoff onset for free atom density etc. : 0.40000000E+01 AA.
  Species Se                  : Basic radial grid will be enhanced according to radial_multiplier =   2, to contain   111 grid points.
  Forces will be computed.
  Cleaning forces before final output.
 
  Finished reading input file 'control.in'.
 
------------------------------------------------------------


------------------------------------------------------------
          Reading geometry description geometry.in.
------------------------------------------------------------
  | The smallest distance between any two atoms is         2.50575684 AA.
  | The first atom of this pair is atom number                     23 .
  | The second atom of this pair is atom number                    39 .
  | Wigner-Seitz cell of the first atom image           0     0     0 .
  | (The Wigner-Seitz cell of the second atom is 0 0 0  by definition.)

  Symmetry information by spglib:
  | Precision set to  0.1E-04
  | Number of Operations  : 1
  | Space group           : 1
  | International         : P1
  | Schoenflies           : C1^1
  Input structure read successfully.
  The structure contains       74 atoms,  and a total of       2716.000 electrons.

  Input geometry:
  | Unit cell:
  |       16.60000000        0.00000000        0.00000000
  |       -8.30000000       14.37602170        0.00000000
  |        0.00000000        0.00000000      100.00000000
  | Atomic structure:
  |       Atom                x [A]            y [A]            z [A]
  |    1: Species Mo           -0.00047389        0.96821934        2.67553288
  |    2: Species Se            1.65998768        1.96070579        4.31957021
  |    3: Species Se            1.65998758        1.92042327        1.00304332
  |    4: Species Mo           -1.64782272        3.85286410        2.67371123
  |    5: Species Se            0.05349798        4.88672243        4.29683390
  |    6: Species Se           -0.01486564        4.81472151        0.96658675
  |    7: Species Mo           -3.29718147        6.70973773        2.67371685
  |    8: Species Se           -1.55114571        7.66616726        4.29684802
  |    9: Species Se           -1.64768481        7.64297497        0.96657133
  |   10: Species Mo           -4.97170495        9.57871235        2.67552592
  |   11: Species Se           -3.28191449       10.52043364        4.31955202
  |   12: Species Se           -3.31677314       10.54056320        1.00304446
  |   13: Species Mo           -6.63997013       12.45919373        2.67534017
  |   14: Species Se           -4.97683374       13.41943799        4.33725967
  |   15: Species Se           -4.97623640       13.41977984        1.01381180
  |   16: Species Mo            3.32046690        0.96823076        2.67553915
  |   17: Species Se            4.96683861        1.93575857        4.34632215
  |   18: Species Se            4.98660905        1.92265574        1.01908995
  |   19: Species Mo            1.66000906        3.87704694        2.63219178
  |   20: Species Se            3.26647841        4.88675071        4.29683766
  |   21: Species Se            3.33483132        4.81475883        0.96659190
  |   22: Species Mo            0.07688187        6.75316397        2.58178032
  |   23: Species Se            1.66000604        7.66725238        0.86800557
  |   24: Species Mo           -1.62228658        9.56226199        2.63219571
  |   25: Species Se            0.05533447       10.44875480        4.29684199
  |   26: Species Se            0.02714045       10.54394644        0.96656207
  |   27: Species Mo           -3.31122081       12.45467387        2.67552755
  |   28: Species Se           -1.65015979       13.39674382        4.34634076
  |   29: Species Se           -1.65159693       13.42041017        1.01909745
  |   30: Species Mo            6.63860366        0.95758172        2.69253229
  |   31: Species Se            8.29562974        1.91431635        4.36224410
  |   32: Species Se            8.30167217        1.91778988        1.03351964
  |   33: Species Mo            4.96775965        3.85288363        2.67371778
  |   34: Species Se            6.62064441        4.80317854        4.35041854
  |   35: Species Se            6.64337600        4.79004046        1.02065001
  |   36: Species Mo            3.24313146        6.75319041        2.58178393
  |   37: Species Se            4.87113897        7.66614933        4.29685202
  |   38: Species Se            4.96768890        7.64297144        0.96658501
  |   39: Species Mo            1.65997460        9.49532553        2.58176340
  |   40: Species Se            3.26466922       10.44874084        4.29682393
  |   41: Species Se            3.29286059       10.54394103        0.96656357
  |   42: Species Mo            0.01062436       12.43904202        2.67372223
  |   43: Species Se            1.66002035       13.39534678        4.35043861
  |   44: Species Se            1.66001867       13.42157707        1.02062926
  |   45: Species Mo            9.95996586        0.95406071        2.69736960
  |   46: Species Se           11.62433184        1.91430601        4.36224700
  |   47: Species Se           11.61830223        1.91778935        1.03352339
  |   48: Species Mo            8.29622043        3.83579810        2.69737763
  |   49: Species Se            9.96000153        4.79704466        4.36224049
  |   50: Species Se            9.95998892        4.79006139        1.03352059
  |   51: Species Mo            6.61716378        6.70976492        2.67371573
  |   52: Species Se            8.27698481        7.66913305        4.34632030
  |   53: Species Se            8.29820667        7.65854706        1.01908075
  |   54: Species Mo            4.94233037        9.56227813        2.63219946
  |   55: Species Se            6.60195791       10.52043946        4.31957440
  |   56: Species Se            6.63681960       10.54058206        1.00303567
  |   57: Species Mo            3.30940862       12.43903132        2.67371128
  |   58: Species Se            4.97017550       13.39675289        4.34632312
  |   59: Species Se            4.97164159       13.42040635        1.01910177
  |   60: Species Mo           13.28137359        0.95761813        2.69253653
  |   61: Species Se           14.95319291        1.93574891        4.34633495
  |   62: Species Se           14.93340737        1.92263978        1.01910547
  |   63: Species Mo           11.62378132        3.83580242        2.69736964
  |   64: Species Se           13.29934032        4.80317454        4.35044309
  |   65: Species Se           13.27659116        4.79005197        1.02062879
  |   66: Species Mo            9.96002798        6.71043168        2.69252408
  |   67: Species Se           11.64300476        7.66913635        4.34632621
  |   68: Species Se           11.62178898        7.65856110        1.01909326
  |   69: Species Mo            8.29168383        9.57865355        2.67552464
  |   70: Species Se            9.96002018       10.53873998        4.33725348
  |   71: Species Se            9.96001864       10.53805815        1.01379940
  |   72: Species Mo            6.63123147       12.45468977        2.67554314
  |   73: Species Se            8.29931508       13.41942106        4.33725472
  |   74: Species Se            8.29621178       13.41975627        1.01380452

  Lattice parameters for 3D lattice (in Angstroms) :    16.600000   16.600000  100.000000
  Angle(s) between unit vectors (in degrees)       :    90.000000   90.000000  120.000000


  Quantities derived from the lattice vectors:
  | Reciprocal lattice vector 1:  0.378505  0.218530  0.000000
  | Reciprocal lattice vector 2: -0.000000  0.437060  0.000000
  | Reciprocal lattice vector 3:  0.000000  0.000000  0.062832
  | Unit cell volume                               :   0.238642E+05  A^3

  Fractional coordinates:
                         L1                L2                L3
       atom_frac         0.03364625        0.06734960        0.02675533  Mo
       atom_frac         0.16819287        0.13638723        0.04319570  Se
       atom_frac         0.16679184        0.13358517        0.01003043  Se
       atom_frac         0.03473671        0.26800628        0.02673711  Mo
       atom_frac         0.17318364        0.33992175        0.04296834  Se
       atom_frac         0.16656115        0.33491334        0.00966587  Se
       atom_frac         0.03474021        0.46673119        0.02673717  Mo
       atom_frac         0.17318783        0.53326069        0.04296848  Se
       atom_frac         0.16656559        0.53164743        0.00966571  Se
       atom_frac         0.03364863        0.66629785        0.02675526  Mo
       atom_frac         0.16819643        0.73180424        0.04319552  Se
       atom_frac         0.16679662        0.73320446        0.01003044  Se
       atom_frac         0.03333426        0.86666492        0.02675340  Mo
       atom_frac         0.16692063        0.93345978        0.04337260  Se
       atom_frac         0.16696850        0.93348355        0.01013812  Se
       atom_frac         0.23370332        0.06735040        0.02675539  Mo
       atom_frac         0.36653309        0.13465190        0.04346322  Se
       atom_frac         0.36726837        0.13374046        0.01019090  Se
       atom_frac         0.23484477        0.26968845        0.02632192  Mo
       atom_frac         0.36673767        0.33992372        0.04296838  Se
       atom_frac         0.36835142        0.33491594        0.00966592  Se
       atom_frac         0.23950740        0.46975193        0.02581780  Mo
       atom_frac         0.36666845        0.53333617        0.00868006  Se
       atom_frac         0.23484867        0.66515356        0.02632196  Mo
       atom_frac         0.36674252        0.72681824        0.04296842  Se
       atom_frac         0.36835487        0.73343980        0.00966562  Se
       atom_frac         0.23370413        0.86635052        0.02675528  Mo
       atom_frac         0.36653337        0.93188116        0.04346341  Se
       atom_frac         0.36726991        0.93352740        0.01019097  Se
       atom_frac         0.43322071        0.06660965        0.02692532  Mo
       atom_frac         0.56631692        0.13316037        0.04362244  Se
       atom_frac         0.56680173        0.13340199        0.01033520  Se
       atom_frac         0.43326645        0.26800764        0.02673718  Mo
       atom_frac         0.56588921        0.33411041        0.04350419  Se
       atom_frac         0.56680164        0.33319652        0.01020650  Se
       atom_frac         0.43024625        0.46975377        0.02581784  Mo
       atom_frac         0.56007183        0.53325944        0.04296852  Se
       atom_frac         0.56508196        0.53164718        0.00966585  Se
       atom_frac         0.43024719        0.66049744        0.02581763  Mo
       atom_frac         0.56007546        0.72681727        0.04296824  Se
       atom_frac         0.56508481        0.73343942        0.00966564  Se
       atom_frac         0.43327160        0.86526316        0.02673722  Mo
       atom_frac         0.56589322        0.93178398        0.04350439  Se
       atom_frac         0.56680541        0.93360857        0.01020629  Se
       atom_frac         0.63318031        0.06636472        0.02697370  Mo
       atom_frac         0.76684078        0.13315965        0.04362247  Se
       atom_frac         0.76659870        0.13340195        0.01033523  Se
       atom_frac         0.63318190        0.26681916        0.02697378  Mo
       atom_frac         0.76684196        0.33368374        0.04362240  Se
       atom_frac         0.76659832        0.33319798        0.01033521  Se
       atom_frac         0.63199087        0.46673308        0.02673716  Mo
       atom_frac         0.76534704        0.53346699        0.04346320  Se
       atom_frac         0.76625728        0.53273063        0.01019081  Se
       atom_frac         0.63030809        0.66515468        0.02632199  Mo
       atom_frac         0.76361063        0.73180465        0.04319574  Se
       atom_frac         0.76641129        0.73320577        0.01003036  Se
       atom_frac         0.63199317        0.86526242        0.02673711  Mo
       atom_frac         0.76534906        0.93188179        0.04346323  Se
       atom_frac         0.76626005        0.93352713        0.01019102  Se
       atom_frac         0.83338884        0.06661218        0.02692537  Mo
       atom_frac         0.96812037        0.13465122        0.04346335  Se
       atom_frac         0.96647253        0.13373935        0.01019105  Se
       atom_frac         0.83363752        0.26681947        0.02697370  Mo
       atom_frac         0.96822015        0.33411013        0.04350443  Se
       atom_frac         0.96639331        0.33319732        0.01020629  Se
       atom_frac         0.83339142        0.46677946        0.02692524  Mo
       atom_frac         0.96811944        0.53346722        0.04346326  Se
       atom_frac         0.96647357        0.53273160        0.01019093  Se
       atom_frac         0.83264591        0.66629376        0.02675525  Mo
       atom_frac         0.96654003        0.73307763        0.04337253  Se
       atom_frac         0.96651623        0.73303021        0.01013799  Se
       atom_frac         0.83264759        0.86635163        0.02675543  Mo
       atom_frac         0.96668804        0.93345860        0.04337255  Se
       atom_frac         0.96651275        0.93348192        0.01013805  Se

 
  Finished reading input file 'control.in'.
 

------------------------------------------------------------
          Reading geometry description geometry.in.
------------------------------------------------------------
 
  Consistency checks for stacksize environment parameter are next.
 
  | Maximum stacksize for task 0: unlimited
  | Maximum stacksize for task 1: unlimited
  | Maximum stacksize for task 2: unlimited
  | Maximum stacksize for task 3: unlimited
  | Maximum stacksize for task 4: unlimited
  | Maximum stacksize for task 5: unlimited
  | Maximum stacksize for task 6: unlimited
  | Maximum stacksize for task 7: unlimited
  | Maximum stacksize for task 8: unlimited
  | Maximum stacksize for task 9: unlimited
  | Maximum stacksize for task 10: unlimited
  | Maximum stacksize for task 11: unlimited
  | Maximum stacksize for task 12: unlimited
  | Maximum stacksize for task 13: unlimited
  | Maximum stacksize for task 14: unlimited
  | Maximum stacksize for task 15: unlimited
  | Maximum stacksize for task 16: unlimited
  | Maximum stacksize for task 17: unlimited
  | Maximum stacksize for task 18: unlimited
  | Maximum stacksize for task 19: unlimited
  | Maximum stacksize for task 20: unlimited
  | Maximum stacksize for task 21: unlimited
  | Maximum stacksize for task 22: unlimited
  | Maximum stacksize for task 23: unlimited
  | Maximum stacksize for task 24: unlimited
  | Maximum stacksize for task 25: unlimited
  | Maximum stacksize for task 26: unlimited
  | Maximum stacksize for task 27: unlimited
  | Maximum stacksize for task 28: unlimited
  | Maximum stacksize for task 29: unlimited
  | Maximum stacksize for task 30: unlimited
  | Maximum stacksize for task 31: unlimited
  | Maximum stacksize for task 32: unlimited
  | Maximum stacksize for task 33: unlimited
  | Maximum stacksize for task 34: unlimited
  | Maximum stacksize for task 35: unlimited
  | Maximum stacksize for task 36: unlimited
  | Maximum stacksize for task 37: unlimited
  | Maximum stacksize for task 38: unlimited
  | Maximum stacksize for task 39: unlimited
  | Maximum stacksize for task 40: unlimited
  | Maximum stacksize for task 41: unlimited
  | Maximum stacksize for task 42: unlimited
  | Maximum stacksize for task 43: unlimited
  | Maximum stacksize for task 44: unlimited
  | Maximum stacksize for task 45: unlimited
  | Maximum stacksize for task 46: unlimited
  | Maximum stacksize for task 47: unlimited
  | Maximum stacksize for task 48: unlimited
  | Maximum stacksize for task 49: unlimited
  | Maximum stacksize for task 50: unlimited
  | Maximum stacksize for task 51: unlimited
  | Maximum stacksize for task 52: unlimited
  | Maximum stacksize for task 53: unlimited
  | Maximum stacksize for task 54: unlimited
  | Maximum stacksize for task 55: unlimited
  | Maximum stacksize for task 56: unlimited
  | Maximum stacksize for task 57: unlimited
  | Maximum stacksize for task 58: unlimited
  | Maximum stacksize for task 59: unlimited
  | Maximum stacksize for task 60: unlimited
  | Maximum stacksize for task 61: unlimited
  | Maximum stacksize for task 62: unlimited
  | Maximum stacksize for task 63: unlimited
  | Maximum stacksize for task 64: unlimited
  | Maximum stacksize for task 65: unlimited
  | Maximum stacksize for task 66: unlimited
  | Maximum stacksize for task 67: unlimited
  | Maximum stacksize for task 68: unlimited
  | Maximum stacksize for task 69: unlimited
  | Maximum stacksize for task 70: unlimited
  | Maximum stacksize for task 71: unlimited
  | Maximum stacksize for task 72: unlimited
  | Maximum stacksize for task 73: unlimited
  | Maximum stacksize for task 74: unlimited
  | Maximum stacksize for task 75: unlimited
  | Maximum stacksize for task 76: unlimited
  | Maximum stacksize for task 77: unlimited
  | Maximum stacksize for task 78: unlimited
  | Maximum stacksize for task 79: unlimited
  | Maximum stacksize for task 80: unlimited
  | Maximum stacksize for task 81: unlimited
  | Maximum stacksize for task 82: unlimited
  | Maximum stacksize for task 83: unlimited
  | Maximum stacksize for task 84: unlimited
  | Maximum stacksize for task 85: unlimited
  | Maximum stacksize for task 86: unlimited
  | Maximum stacksize for task 87: unlimited
  | Maximum stacksize for task 88: unlimited
  | Maximum stacksize for task 89: unlimited
  | Maximum stacksize for task 90: unlimited
  | Maximum stacksize for task 91: unlimited
  | Maximum stacksize for task 92: unlimited
  | Maximum stacksize for task 93: unlimited
  | Maximum stacksize for task 94: unlimited
  | Maximum stacksize for task 95: unlimited
  | Maximum stacksize for task 96: unlimited
  | Maximum stacksize for task 97: unlimited
  | Maximum stacksize for task 98: unlimited
  | Maximum stacksize for task 99: unlimited
  | Maximum stacksize for task 100: unlimited
  | Maximum stacksize for task 101: unlimited
  | Maximum stacksize for task 102: unlimited
  | Maximum stacksize for task 103: unlimited
  | Maximum stacksize for task 104: unlimited
  | Maximum stacksize for task 105: unlimited
  | Maximum stacksize for task 106: unlimited
  | Maximum stacksize for task 107: unlimited
  | Maximum stacksize for task 108: unlimited
  | Maximum stacksize for task 109: unlimited
  | Maximum stacksize for task 110: unlimited
  | Maximum stacksize for task 111: unlimited
  | Maximum stacksize for task 112: unlimited
  | Maximum stacksize for task 113: unlimited
  | Maximum stacksize for task 114: unlimited
  | Maximum stacksize for task 115: unlimited
  | Maximum stacksize for task 116: unlimited
  | Maximum stacksize for task 117: unlimited
  | Maximum stacksize for task 118: unlimited
  | Maximum stacksize for task 119: unlimited
  | Maximum stacksize for task 120: unlimited
  | Maximum stacksize for task 121: unlimited
  | Maximum stacksize for task 122: unlimited
  | Maximum stacksize for task 123: unlimited
  | Maximum stacksize for task 124: unlimited
  | Maximum stacksize for task 125: unlimited
  | Maximum stacksize for task 126: unlimited
  | Maximum stacksize for task 127: unlimited
  | Maximum stacksize for task 128: unlimited
  | Maximum stacksize for task 129: unlimited
  | Maximum stacksize for task 130: unlimited
  | Maximum stacksize for task 131: unlimited
  | Maximum stacksize for task 132: unlimited
  | Maximum stacksize for task 133: unlimited
  | Maximum stacksize for task 134: unlimited
  | Maximum stacksize for task 135: unlimited
  | Maximum stacksize for task 136: unlimited
  | Maximum stacksize for task 137: unlimited
  | Maximum stacksize for task 138: unlimited
  | Maximum stacksize for task 139: unlimited
  | Maximum stacksize for task 140: unlimited
  | Maximum stacksize for task 141: unlimited
  | Maximum stacksize for task 142: unlimited
  | Maximum stacksize for task 143: unlimited
  | Maximum stacksize for task 144: unlimited
  | Maximum stacksize for task 145: unlimited
  | Maximum stacksize for task 146: unlimited
  | Maximum stacksize for task 147: unlimited
  | Maximum stacksize for task 148: unlimited
  | Maximum stacksize for task 149: unlimited
  | Maximum stacksize for task 150: unlimited
  | Maximum stacksize for task 151: unlimited
  | Maximum stacksize for task 152: unlimited
  | Maximum stacksize for task 153: unlimited
  | Maximum stacksize for task 154: unlimited
  | Maximum stacksize for task 155: unlimited
  | Maximum stacksize for task 156: unlimited
  | Maximum stacksize for task 157: unlimited
  | Maximum stacksize for task 158: unlimited
  | Maximum stacksize for task 159: unlimited
  | Current stacksize for task 0: unlimited
  | Current stacksize for task 1: unlimited
  | Current stacksize for task 2: unlimited
  | Current stacksize for task 3: unlimited
  | Current stacksize for task 4: unlimited
  | Current stacksize for task 5: unlimited
  | Current stacksize for task 6: unlimited
  | Current stacksize for task 7: unlimited
  | Current stacksize for task 8: unlimited
  | Current stacksize for task 9: unlimited
  | Current stacksize for task 10: unlimited
  | Current stacksize for task 11: unlimited
  | Current stacksize for task 12: unlimited
  | Current stacksize for task 13: unlimited
  | Current stacksize for task 14: unlimited
  | Current stacksize for task 15: unlimited
  | Current stacksize for task 16: unlimited
  | Current stacksize for task 17: unlimited
  | Current stacksize for task 18: unlimited
  | Current stacksize for task 19: unlimited
  | Current stacksize for task 20: unlimited
  | Current stacksize for task 21: unlimited
  | Current stacksize for task 22: unlimited
  | Current stacksize for task 23: unlimited
  | Current stacksize for task 24: unlimited
  | Current stacksize for task 25: unlimited
  | Current stacksize for task 26: unlimited
  | Current stacksize for task 27: unlimited
  | Current stacksize for task 28: unlimited
  | Current stacksize for task 29: unlimited
  | Current stacksize for task 30: unlimited
  | Current stacksize for task 31: unlimited
  | Current stacksize for task 32: unlimited
  | Current stacksize for task 33: unlimited
  | Current stacksize for task 34: unlimited
  | Current stacksize for task 35: unlimited
  | Current stacksize for task 36: unlimited
  | Current stacksize for task 37: unlimited
  | Current stacksize for task 38: unlimited
  | Current stacksize for task 39: unlimited
  | Current stacksize for task 40: unlimited
  | Current stacksize for task 41: unlimited
  | Current stacksize for task 42: unlimited
  | Current stacksize for task 43: unlimited
  | Current stacksize for task 44: unlimited
  | Current stacksize for task 45: unlimited
  | Current stacksize for task 46: unlimited
  | Current stacksize for task 47: unlimited
  | Current stacksize for task 48: unlimited
  | Current stacksize for task 49: unlimited
  | Current stacksize for task 50: unlimited
  | Current stacksize for task 51: unlimited
  | Current stacksize for task 52: unlimited
  | Current stacksize for task 53: unlimited
  | Current stacksize for task 54: unlimited
  | Current stacksize for task 55: unlimited
  | Current stacksize for task 56: unlimited
  | Current stacksize for task 57: unlimited
  | Current stacksize for task 58: unlimited
  | Current stacksize for task 59: unlimited
  | Current stacksize for task 60: unlimited
  | Current stacksize for task 61: unlimited
  | Current stacksize for task 62: unlimited
  | Current stacksize for task 63: unlimited
  | Current stacksize for task 64: unlimited
  | Current stacksize for task 65: unlimited
  | Current stacksize for task 66: unlimited
  | Current stacksize for task 67: unlimited
  | Current stacksize for task 68: unlimited
  | Current stacksize for task 69: unlimited
  | Current stacksize for task 70: unlimited
  | Current stacksize for task 71: unlimited
  | Current stacksize for task 72: unlimited
  | Current stacksize for task 73: unlimited
  | Current stacksize for task 74: unlimited
  | Current stacksize for task 75: unlimited
  | Current stacksize for task 76: unlimited
  | Current stacksize for task 77: unlimited
  | Current stacksize for task 78: unlimited
  | Current stacksize for task 79: unlimited
  | Current stacksize for task 80: unlimited
  | Current stacksize for task 81: unlimited
  | Current stacksize for task 82: unlimited
  | Current stacksize for task 83: unlimited
  | Current stacksize for task 84: unlimited
  | Current stacksize for task 85: unlimited
  | Current stacksize for task 86: unlimited
  | Current stacksize for task 87: unlimited
  | Current stacksize for task 88: unlimited
  | Current stacksize for task 89: unlimited
  | Current stacksize for task 90: unlimited
  | Current stacksize for task 91: unlimited
  | Current stacksize for task 92: unlimited
  | Current stacksize for task 93: unlimited
  | Current stacksize for task 94: unlimited
  | Current stacksize for task 95: unlimited
  | Current stacksize for task 96: unlimited
  | Current stacksize for task 97: unlimited
  | Current stacksize for task 98: unlimited
  | Current stacksize for task 99: unlimited
  | Current stacksize for task 100: unlimited
  | Current stacksize for task 101: unlimited
  | Current stacksize for task 102: unlimited
  | Current stacksize for task 103: unlimited
  | Current stacksize for task 104: unlimited
  | Current stacksize for task 105: unlimited
  | Current stacksize for task 106: unlimited
  | Current stacksize for task 107: unlimited
  | Current stacksize for task 108: unlimited
  | Current stacksize for task 109: unlimited
  | Current stacksize for task 110: unlimited
  | Current stacksize for task 111: unlimited
  | Current stacksize for task 112: unlimited
  | Current stacksize for task 113: unlimited
  | Current stacksize for task 114: unlimited
  | Current stacksize for task 115: unlimited
  | Current stacksize for task 116: unlimited
  | Current stacksize for task 117: unlimited
  | Current stacksize for task 118: unlimited
  | Current stacksize for task 119: unlimited
  | Current stacksize for task 120: unlimited
  | Current stacksize for task 121: unlimited
  | Current stacksize for task 122: unlimited
  | Current stacksize for task 123: unlimited
  | Current stacksize for task 124: unlimited
  | Current stacksize for task 125: unlimited
  | Current stacksize for task 126: unlimited
  | Current stacksize for task 127: unlimited
  | Current stacksize for task 128: unlimited
  | Current stacksize for task 129: unlimited
  | Current stacksize for task 130: unlimited
  | Current stacksize for task 131: unlimited
  | Current stacksize for task 132: unlimited
  | Current stacksize for task 133: unlimited
  | Current stacksize for task 134: unlimited
  | Current stacksize for task 135: unlimited
  | Current stacksize for task 136: unlimited
  | Current stacksize for task 137: unlimited
  | Current stacksize for task 138: unlimited
  | Current stacksize for task 139: unlimited
  | Current stacksize for task 140: unlimited
  | Current stacksize for task 141: unlimited
  | Current stacksize for task 142: unlimited
  | Current stacksize for task 143: unlimited
  | Current stacksize for task 144: unlimited
  | Current stacksize for task 145: unlimited
  | Current stacksize for task 146: unlimited
  | Current stacksize for task 147: unlimited
  | Current stacksize for task 148: unlimited
  | Current stacksize for task 149: unlimited
  | Current stacksize for task 150: unlimited
  | Current stacksize for task 151: unlimited
  | Current stacksize for task 152: unlimited
  | Current stacksize for task 153: unlimited
  | Current stacksize for task 154: unlimited
  | Current stacksize for task 155: unlimited
  | Current stacksize for task 156: unlimited
  | Current stacksize for task 157: unlimited
  | Current stacksize for task 158: unlimited
  | Current stacksize for task 159: unlimited
 
  Consistency checks for the contents of control.in are next.
 
  MPI_IN_PLACE appears to work with this MPI implementation.
  | Keeping use_mpi_in_place .true. (see manual).
  Target number of points in a grid batch is not set. Defaulting to  100
  Method for grid partitioning is not set. Defaulting to parallel hash+maxmin partitioning.
  Batch size limit is not set. Defaulting to    200
  By default, will store active basis functions for each batch.
  If in need of memory, prune_basis_once .false. can be used to disable this option.
  communication_type for Hartree potential was not specified.
  Defaulting to calc_hartree .
  Defaulting to Pulay charge density mixer.
  Pulay mixer: Number of relevant iterations not set.
  Defaulting to    8 iterations.
  Pulay mixer: Number of initial linear mixing iterations not set.
  Defaulting to    0 iterations.
  Work space size for distributed Hartree potential not set.
  Defaulting to   0.200000E+03 MB.
  Mixing parameter for charge density mixing has not been set.
  Using default: charge_mix_param =     0.0500.
  The mixing parameter will be adjusted in iteration number     2 of the first full s.c.f. cycle only.
  Algorithm-dependent basis array size parameters:
  | n_max_pulay                         :        8
  Maximum number of self-consistency iterations not provided.
  Presetting  1000 iterations.
  Presetting      1001 iterations before the initial mixing cycle
  is restarted anyway using the sc_init_iter criterion / keyword.
  Presetting a factor      1.000 between actual scf density residual
  and density convergence criterion sc_accuracy_rho below which sc_init_iter
  takes no effect.
  Geometry relaxation not requested: no relaxation will be performed.
  Forces evaluation will include force correction term due to incomplete self-consistency (default).
  Handling of forces: Unphysical translation and rotation will be removed from forces.
  No accuracy limit for integral partition fn. given. Defaulting to  0.1000E-14.
  No threshold value for u(r) in integrations given. Defaulting to  0.1000E-05.
  No accuracy for occupation numbers given. Defaulting to  0.1000E-12.
  No threshold value for occupation numbers given. Defaulting to  0.0000E+00.
  No accuracy for fermi level given. Defaulting to  0.1000E-19.
  Maximum # of iterations to find E_F not set. Defaulting to  200.
  Preferred method for the eigenvalue solver ('KS_method') not specified in 'control.in'.
  Calling BLACS routine to test compilation state
  Since ScaLAPACK support is enabled, defaulting to ELPA (via ELSI).
  Will not use alltoall communication since running on < 1024 CPUs.
  Threshold for basis singularities not set.
  Default threshold for basis singularities:  0.1000E-04
  partition_type (choice of integration weights) for integrals was not specified.
  | Using a version of the partition function of Stratmann and coworkers ('stratmann_sparse').
  | At each grid point, the set of atoms used to build the partition table is smoothly restricted to
  | only those atoms whose free-atom density would be non-zero at that grid point.
  Partitioning for Hartree potential was not defined. Using partition_type for integrals.
  | Adjusted default value of keyword multip_moments_threshold to:       0.10000000E-11
  | This value may affect high angular momentum components of the Hartree potential in periodic systems.
  Angular momentum expansion for Kerker preconditioner not set explicitly.
  | Using default value of   0
  No explicit requirement for turning off preconditioner.
  | By default, it will be turned off when the charge convergence reaches
  | sc_accuracy_rho  =   0.100000E-03
  | sc_accuracy_eev  =   0.100000E-02
  | sc_accuracy_etot =   0.100000E-03
  No special mixing parameter while Kerker preconditioner is on.
  Using default: charge_mix_param =     0.0500.
  No q(lm)/r^(l+1) cutoff set for long-range Hartree potential.
  | Using default value of  0.100000E-09 .
  | Verify using the multipole_threshold keyword.
  Defaulting to new monopole extrapolation.
  Density update method: automatic selection selected.
  Using density matrix based charge density update.
  Using density matrix based charge density update.
  Using packed matrix style: index .
  Defaulting to use time-reversal symmetry for k-point grid.
  Charge integration errors on the 3D integration grid will be compensated
  by explicit normalization and distribution of residual charges.
  Use the "compensate_multipole_errors" flag to change this behaviour.
 
  Consistency checks for the contents of geometry.in are next.
 

  Range separation radius for Ewald summation (hartree_convergence_parameter):      5.00000000 bohr.
  Number of empty states per atom not set in control.in - providing a guess from actual geometry.
  | Total number of empty states used during s.c.f. cycle:      407
  If you use a very high smearing, use empty_states (per atom!) in control.in to increase this value.

  Structure-dependent array size parameters: 
  | Maximum number of distinct radial functions  :       57
  | Maximum number of basis functions            :     2891
  | Number of Kohn-Sham states (occupied + empty):     1765
------------------------------------------------------------

------------------------------------------------------------
          Preparing all fixed parts of the calculation.
------------------------------------------------------------
  Determining machine precision:
    2.225073858507201E-308
  Setting up grids for atomic and cluster calculations.

  Creating wave function, potential, and density for free atoms.

  Species: S

  List of occupied orbitals and eigenvalues:
    n    l              occ      energy [Ha]    energy [eV]
    1    0           2.0000       -88.680731     -2413.1255
    2    0           2.0000        -7.781719      -211.7513
    3    0           2.0000        -0.633662       -17.2428
    2    1           6.0000        -5.751976      -156.5192
    3    1           4.0000        -0.257086        -6.9957


  Species: Mo

  List of occupied orbitals and eigenvalues:
    n    l              occ      energy [Ha]    energy [eV]
    1    0           2.0000      -745.344654    -20281.8600
    2    0           2.0000      -103.288246     -2810.6162
    3    0           2.0000       -17.516687      -476.6533
    4    0           2.0000        -2.358559       -64.1796
    5    0           1.0000        -0.145159        -3.9500
    2    1           6.0000       -92.308627     -2511.8455
    3    1           6.0000       -13.936005      -379.2180
    4    1           6.0000        -1.408138       -38.3174
    3    2          10.0000        -8.119011      -220.9295
    4    2           5.0000        -0.132984        -3.6187


  Species: W

  List of occupied orbitals and eigenvalues:
    n    l              occ      energy [Ha]    energy [eV]
    1    0           2.0000     -2764.899999    -75236.7570
    2    0           2.0000      -447.822848    -12185.8797
    3    0           2.0000      -101.923634     -2773.4832
    4    0           2.0000       -20.945301      -569.9506
    5    0           2.0000        -2.899582       -78.9016
    6    0           2.0000        -0.207066        -5.6345
    2    1           6.0000      -391.021390    -10640.2334
    3    1           6.0000       -85.417793     -2324.3364
    4    1           6.0000       -15.562838      -423.4864
    5    1           6.0000        -1.582233       -43.0547
    3    2          10.0000       -66.517936     -1810.0451
    4    2          10.0000        -8.758436      -238.3292
    5    2           4.0000        -0.161873        -4.4048
    4    3          14.0000        -1.221948       -33.2509


  Species: Se

  List of occupied orbitals and eigenvalues:
    n    l              occ      energy [Ha]    energy [eV]
    1    0           2.0000      -466.337810    -12689.6975
    2    0           2.0000       -59.202598     -1610.9847
    3    0           2.0000        -7.847116      -213.5309
    4    0           2.0000        -0.634372       -17.2621
    2    1           6.0000       -52.061107     -1416.6548
    3    1           6.0000        -5.620941      -152.9536
    4    1           4.0000        -0.238469        -6.4891
    3    2          10.0000        -1.951949       -53.1152


  Adding cutoff potential to free-atom effective potential.
  Creating fixed part of basis set: Ionic, confined, hydrogenic.
 
  S                    ion:

  List of free ionic orbitals and eigenvalues:
    n    l      energy [Ha]    energy [eV]
    1    0       -89.703778     -2440.9640
    2    0        -8.775428      -238.7916
    3    0        -1.470343       -40.0101
    2    1        -6.747660      -183.6132
    3    1        -1.048627       -28.5346


  List of ionic basis orbitals and eigenvalues:
    n    l      energy [Ha]    energy [eV]    outer radius [A]
    3    2        -0.495605       -13.4861       5.386362
    3    0        -1.470336       -40.0099       3.967934

 
  S                    hydrogenic:
 
  List of hydrogenic basis orbitals: 
    n    l      effective z      eigenvalue [eV]  inner max. [A]     outer max. [A]     outer radius [A]   
    2    1         1.800000       -11.0118           1.168531           1.168531           5.452614
    4    3         7.000000       -41.6672           1.212182           1.212182           5.066981
    4    2         6.200000       -32.6848           0.582121           1.814567           5.386362
    5    4        10.800000       -63.4785           1.227092           1.227092           4.766538
 
 
  Mo                   ion:

  List of free ionic orbitals and eigenvalues:
    n    l      energy [Ha]    energy [eV]
    1    0      -746.048685    -20301.0176
    2    0      -103.980912     -2829.4646
    3    0       -18.206601      -495.4268
    4    0        -3.040545       -82.7374
    2    1       -93.001013     -2530.6863
    3    1       -14.625827      -397.9890
    4    1        -2.084855       -56.7318
    3    2        -8.808854      -239.7011
    4    2        -0.765435       -20.8285


  List of ionic basis orbitals and eigenvalues:
    n    l      energy [Ha]    energy [eV]    outer radius [A]
    5    1        -0.465587       -12.6693       5.456393
    5    0        -0.650331       -17.6964       5.390095

 
  Mo                   hydrogenic:
 
  List of hydrogenic basis orbitals: 
    n    l      effective z      eigenvalue [eV]  inner max. [A]     outer max. [A]     outer radius [A]   
    4    3         8.400000       -60.0010           1.009788           1.009788           4.487018
    3    2         2.800000       -11.8048           1.687401           1.687401           5.456393
    5    4        12.000000       -78.3687           1.100005           1.100005           4.432498
 
 
  W                    ion:

  List of free ionic orbitals and eigenvalues:
    n    l      energy [Ha]    energy [eV]
    1    0     -2765.664016    -75257.5469
    2    0      -448.543169    -12205.4806
    3    0      -102.635476     -2792.8534
    4    0       -21.655379      -589.2728
    5    0        -3.604872       -98.0936
    6    0        -0.752243       -20.4696
    2    1      -391.740682    -10659.8063
    3    1       -86.129333     -2343.6984
    4    1       -16.272893      -442.8080
    5    1        -2.280103       -62.0448
    3    2       -67.229405     -1829.4052
    4    2        -9.468448      -257.6496
    5    2        -0.806537       -21.9470
    4    3        -1.931058       -52.5468


  List of ionic basis orbitals and eigenvalues:
    n    l      energy [Ha]    energy [eV]    outer radius [A]
    6    1        -0.508246       -13.8301       5.434360
    6    0        -0.752227       -20.4691       5.368330

 
  W                    hydrogenic:
 
  List of hydrogenic basis orbitals: 
    n    l      effective z      eigenvalue [eV]  inner max. [A]     outer max. [A]     outer radius [A]   
    4    3         7.800000       -51.7355           1.082252           1.082252           4.692859
    4    2         5.800000       -28.5979           0.616741           1.946131           5.434360
    5    4        12.400000       -83.6803           1.069102           1.069102           4.307971
 
 
  Se                   ion:

  List of free ionic orbitals and eigenvalues:
    n    l      energy [Ha]    energy [eV]
    1    0      -467.261007    -12714.8189
    2    0       -60.104893     -1635.5374
    3    0        -8.743714      -237.9286
    4    0        -1.414053       -38.4783
    2    1       -52.964156     -1441.2280
    3    1        -6.516916      -177.3343
    4    1        -0.961869       -26.1738
    3    2        -2.844511       -77.4031


  List of ionic basis orbitals and eigenvalues:
    n    l      energy [Ha]    energy [eV]    outer radius [A]
    4    0        -1.414046       -38.4782       4.083166

 
  Se                   hydrogenic:
 
  List of hydrogenic basis orbitals: 
    n    l      effective z      eigenvalue [eV]  inner max. [A]     outer max. [A]     outer radius [A]   
    3    2         4.300000       -27.9518           1.103845           1.103845           5.278265
    2    1         1.600000        -8.6828           1.326010           1.326010           5.475439
    4    3         7.200000       -44.0822           1.173422           1.173422           4.965294
 
  Creating atomic-like basis functions for current effective potential.

  Species S                   :

  List of atomic basis orbitals and eigenvalues:
    n    l      energy [Ha]    energy [eV]    outer radius [A]
    1    0       -88.680731     -2413.1255       0.682391
    2    0        -7.781719      -211.7513       2.289014
    3    0        -0.633662       -17.2428       5.256262
    2    1        -5.751976      -156.5192       2.555240
    3    1        -0.257086        -6.9957       5.386362


  Species Mo                  :

  List of atomic basis orbitals and eigenvalues:
    n    l      energy [Ha]    energy [eV]    outer radius [A]
    1    0      -745.344654    -20281.8600       0.247552
    2    0      -103.288246     -2810.6162       0.682864
    3    0       -17.516687      -476.6533       1.626637
    4    0        -2.358559       -64.1796       4.220963
[...]
   3420       0.00000                      10.015667          10.025054             0.000000
   3421       0.00000                      10.067913          10.071664             0.046610
   3422       0.00000                      10.067913          10.071664             0.000000
   3423       0.00000                      10.068222          10.078244             0.006580
   3424       0.00000                      10.068222          10.078244             0.000000
   3425       0.00000                      10.187874          10.194417             0.116173
   3426       0.00000                      10.187874          10.194417             0.000000
   3427       0.00000                      10.220483          10.237794             0.043377
   3428       0.00000                      10.220483          10.237794             0.000000
   3429       0.00000                      10.385339          10.382171             0.144377
   3430       0.00000                      10.385339          10.382171             0.000000
   3431       0.00000                      10.385879          10.390934             0.008764
   3432       0.00000                      10.385879          10.390934             0.000000
   3433       0.00000                      10.464642          10.471551             0.080617
   3434       0.00000                      10.464642          10.471551             0.000000
   3435       0.00000                      10.464951          10.488474             0.016923
   3436       0.00000                      10.464951          10.488474             0.000000
   3437       0.00000                      10.509374          10.531808             0.043335
   3438       0.00000                      10.509374          10.531808             0.000000
   3439       0.00000                      10.582896          10.603961             0.072152
   3440       0.00000                      10.582896          10.603961             0.000000
   3441       0.00000                      10.582974          10.611045             0.007085
   3442       0.00000                      10.582974          10.611045             0.000000
   3443       0.00000                      10.603478          10.619324             0.008278
   3444       0.00000                      10.603478          10.619324             0.000000
   3445       0.00000                      10.745494          10.749884             0.130560
   3446       0.00000                      10.745494          10.749884             0.000000
   3447       0.00000                      10.745649          10.754845             0.004962
   3448       0.00000                      10.745649          10.754845             0.000000
   3449       0.00000                      11.144842          11.140831             0.385986
   3450       0.00000                      11.144842          11.140831             0.000000
   3451       0.00000                      11.145005          11.146903             0.006072
   3452       0.00000                      11.145005          11.146903             0.000000
   3453       0.00000                      11.145747          11.161001             0.014097
   3454       0.00000                      11.145747          11.161001             0.000000
   3455       0.00000                      11.175117          11.174343             0.013343
   3456       0.00000                      11.175117          11.174343             0.000000
   3457       0.00000                      11.225419          11.215543             0.041200
   3458       0.00000                      11.225419          11.215543             0.000000
   3459       0.00000                      11.225671          11.246771             0.031228
   3460       0.00000                      11.225671          11.246771             0.000000
   3461       0.00000                      11.450569          11.455139             0.208367
   3462       0.00000                      11.450569          11.455139             0.000000
   3463       0.00000                      11.548576          11.545710             0.090572
   3464       0.00000                      11.548576          11.545710             0.000000
   3465       0.00000                      11.548751          11.571775             0.026065
   3466       0.00000                      11.548751          11.571775             0.000000
   3467       0.00000                      11.605577          11.609596             0.037821
   3468       0.00000                      11.605577          11.609596             0.000000
   3469       0.00000                      11.605649          11.630668             0.021073
   3470       0.00000                      11.605649          11.630668             0.000000
   3471       0.00000                      11.700275          11.716113             0.085445
   3472       0.00000                      11.700275          11.716113             0.000000
   3473       0.00000                      11.894941          11.901912             0.185800
   3474       0.00000                      11.894941          11.901912             0.000000
   3475       0.00000                      11.975791          11.977415             0.075503
   3476       0.00000                      11.975791          11.977415             0.000000
   3477       0.00000                      11.975895          11.986238             0.008823
   3478       0.00000                      11.975895          11.986238             0.000000
   3479       0.00000                      12.007134          12.013301             0.027062
   3480       0.00000                      12.007134          12.013301             0.000000
   3481       0.00000                      12.113636          12.118915             0.105615
   3482       0.00000                      12.113636          12.118915             0.000000
   3483       0.00000                      12.144196          12.136720             0.017804
   3484       0.00000                      12.144196          12.136720             0.000000
   3485       0.00000                      12.144360          12.158613             0.021893
   3486       0.00000                      12.144360          12.158613             0.000000
   3487       0.00000                      12.266583          12.266505             0.107892
   3488       0.00000                      12.266583          12.266505             0.000000
   3489       0.00000                      12.266958          12.277464             0.010959
   3490       0.00000                      12.266958          12.277464             0.000000
   3491       0.00000                      12.290028          12.296354             0.018889
   3492       0.00000                      12.290028          12.296354             0.000000
   3493       0.00000                      12.454108          12.456191             0.159837
   3494       0.00000                      12.454108          12.456191             0.000000
   3495       0.00000                      12.454411          12.462705             0.006514
   3496       0.00000                      12.454411          12.462705             0.000000
   3497       0.00000                      12.538449          12.543479             0.080774
   3498       0.00000                      12.538449          12.543479             0.000000
   3499       0.00000                      12.576172          12.579166             0.035688
   3500       0.00000                      12.576172          12.579166             0.000000
   3501       0.00000                      12.576490          12.579771             0.000605
   3502       0.00000                      12.576490          12.579771             0.000000
   3503       0.00000                      12.607622          12.612277             0.032506
   3504       0.00000                      12.607622          12.612277             0.000000
   3505       0.00000                      12.719721          12.722228             0.109951
   3506       0.00000                      12.719721          12.722228             0.000000
   3507       0.00000                      12.720104          12.722587             0.000360
   3508       0.00000                      12.720104          12.722587             0.000000
   3509       0.00000                      12.778392          12.779629             0.057041
   3510       0.00000                      12.778392          12.779629             0.000000
   3511       0.00000                      12.848194          12.847741             0.068112
   3512       0.00000                      12.848194          12.847741             0.000000
   3513       0.00000                      12.848429          12.855208             0.007467
   3514       0.00000                      12.848429          12.855208             0.000000
   3515       0.00000                      12.870142          12.871640             0.016432
   3516       0.00000                      12.870142          12.871640             0.000000
   3517       0.00000                      12.960309          12.962935             0.091295
   3518       0.00000                      12.960309          12.962935             0.000000
   3519       0.00000                      13.011067          12.994716             0.031781
   3520       0.00000                      13.011067          12.994716             0.000000
   3521       0.00000                      13.011172          13.029076             0.034360
   3522       0.00000                      13.011172          13.029076             0.000000
   3523       0.00000                      13.062096          13.068187             0.039111
   3524       0.00000                      13.062096          13.068187             0.000000
   3525       0.00000                      13.089121          13.100652             0.032465
   3526       0.00000                      13.089121          13.100652             0.000000
   3527       0.00000                      13.089295          13.104136             0.003484
   3528       0.00000                      13.089295          13.104136             0.000000
   3529       0.00000                      13.146294          13.162237             0.058100
   3530       0.00000                      13.146294          13.162237             0.000000

  What follows are estimated values for band gap, HOMO, LUMO, etc.
  | They are estimated on a discrete k-point grid and not necessarily exact.
  | For converged numbers, create a DOS and/or band structure plot on a denser k-grid.

  Highest occupied state (VBM) at     -5.34768271 eV (relative to internal zero)
  | Occupation number:      1.00000000
  | K-point:       5 at    0.250000    0.250000    0.000000 (in units of recip. lattice)

  Lowest unoccupied state (CBM) at    -4.39249646 eV (relative to internal zero)
  | Occupation number:      0.00000000
  | K-point:       8 at    0.500000    0.250000    0.000000 (in units of recip. lattice)

  ESTIMATED overall HOMO-LUMO gap:      0.95518625 eV between HOMO at k-point 5 and LUMO at k-point 8
  | This appears to be an indirect band gap.
  | Smallest direct gap :      0.95518631 eV for k_point 5 at    0.250000    0.250000    0.000000 (in units of recip. lattice)
  The gap value is above 0.2 eV. Unless you are using a very sparse k-point grid,
  this system is most likely an insulator or a semiconductor.

  Spin-orbit coupling                                     :  max(cpu_time)    wall_clock(cpu1)
  | Computing matrix elements for SOC operator            :         11.601              11.617
  | Constructing second-variational Hamiltonian           :          3.168               3.171
  | Diagonalizing second-variational Hamiltonian          :          4.847               4.851
  | Syncing data and calculating occupations              :          0.248               0.160
  | Writing out data, calculating band gaps, etc.         :          0.026               0.028
  | Total SOC time                                        :         19.815              19.829

  Partial memory accounting:
  | Current value for overall tracked memory usage:
  |   Minimum:       65.798 MB (on task   5)
  |   Maximum:       66.529 MB (on task   0)
  |   Average:       65.980 MB
  | Peak value for overall tracked memory usage:
  |   Minimum:      189.520 MB (on task   5 after allocating temp_cmplx_eienvec)
  |   Maximum:      191.278 MB (on task   0 after allocating temp_cmplx_eienvec)
  |   Average:      189.957 MB
  | Largest tracked array allocation so far:
  |   Minimum:       82.747 MB (soc_matrix on task   0)
  |   Maximum:       82.747 MB (soc_matrix on task   0)
  |   Average:       82.747 MB
  Note:  These values currently only include a subset of arrays which are explicitly tracked.
  The "true" memory usage will be greater.
 ------------------------------------------------------------

------------------------------------------------------------------------------
  Final output of selected total energy values:

  The following output summarizes some interesting total energy values
  at the end of a run (AFTER all relaxation, molecular dynamics, etc.).

  | Total energy of the DFT / Hartree-Fock s.c.f. calculation      :       -6041768.483662155 eV
  | Final zero-broadening corrected energy (caution - metals only) :       -6041768.483662155 eV
  | Total energy after non-SC SOC correction (DO NOT USE)          :       -6041772.806781231 eV
  | For reference only, the value of 1 Hartree used in FHI-aims is :             27.211384500 eV
  | For reference only, the overall average (free atom contribution
  | + realspace contribution) of the electrostatic potential after
  | s.c.f. convergence is                                          :             -1.209178534 eV

  Before relying on these values, please be sure to understand exactly which
  total energy value is referred to by a given number. Different objects may
  all carry the same name 'total energy'. Definitions:

  Total energy of the DFT / Hartree-Fock s.c.f. calculation:
  | Note that this energy does not include ANY quantities calculated after the
  | s.c.f. cycle, in particular not ANY RPA, MP2, etc. many-body perturbation terms.

  Final zero-broadening corrected energy:
  | For metallic systems only, a broadening of the occupation numbers at the Fermi
  | level can be extrapolated back to zero broadening by an electron-gas inspired
  | formula. For all systems that are not real metals, this value can be
  | meaningless and should be avoided.

------------------------------------------------------------------------------
  Methods described in the following list of references were used in this FHI-aims run.
  If you publish the results, please make sure to cite these reference if they apply.
  FHI-aims is an academic code, and for our developers (often, Ph.D. students
  and postdocs), scientific credit in the community is essential.
  Thank you for helping us!

  For any use of FHI-aims, please cite:

    Volker Blum, Ralf Gehrke, Felix Hanke, Paula Havu, Ville Havu,
    Xinguo Ren, Karsten Reuter, and Matthias Scheffler
    'Ab initio molecular simulations with numeric atom-centered orbitals'
    Computer Physics Communications 180, 2175-2196 (2009)
    http://dx.doi.org/10.1016/j.cpc.2009.06.022


  The provided symmetry information was generated with SPGlib:

    Atsushi Togo, Yusuke Seto, Dimitar Pashov
    SPGlib 1.7.3 obtained from http://spglib.sourceforge.net
    Copyright (C) 2008 Atsushi Togo


  For second-variational spin-orbit coupling used in your run, please cite:

    William P. Huhn and Volker Blum,
    'One-hundred-three compound band-structure benchmark of post-self-consistent'
    'spin-orbit coupling treatments in density functional theory'
    Phys. Rev. Materials 1, 033803 (2017).


  The ELSI infrastructure was used in your run to solve the Kohn-Sham electronic structure.
  Please check out http://elsi-interchange.org to learn more.
  If scalability is important for your project, please acknowledge ELSI by citing:

    V. W-z. Yu, F. Corsetti, A. Garcia, W. P. Huhn, M. Jacquelin, W. Jia,
    B. Lange, L. Lin, J. Lu, W. Mi, A. Seifitokaldani, A. Vazquez-Mayagoitia,
    C. Yang, H. Yang, and V. Blum
    'ELSI: A unified software interface for Kohn-Sham electronic structure solvers'
    Computer Physics Communications 222, 267-285 (2018).
    http://dx.doi.org/10.1016/j.cpc.2017.09.007


  For the real-space grid partitioning and parallelization used in this calculation, please cite:

    Ville Havu, Volker Blum, Paula Havu, and Matthias Scheffler,
    'Efficient O(N) integration for all-electron electronic structure calculation'
    'using numerically tabulated basis functions'
    Journal of Computational Physics 228, 8367-8379 (2009).
    http://dx.doi.org/10.1016/j.jcp.2009.08.008

  Of course, there are many other important community references, e.g., those cited in the
  above references. Our list is limited to references that describe implementations in the
  FHI-aims code. The reason is purely practical (length of this list) - please credit others as well.

------------------------------------------------------------
          Leaving FHI-aims.
          Date     :  20210808, Time     :  143033.338

          Computational steps:
          | Number of self-consistency cycles          :           26
          | Number of SCF (re)initializations          :            1

          Detailed time accounting                     :  max(cpu_time)    wall_clock(cpu1)
          | Total time                                 :      353.710 s         353.972 s
          | Preparation time                           :        1.014 s           1.015 s
          | Boundary condition initalization           :        0.947 s           0.947 s
          | Grid partitioning                          :        1.530 s           1.530 s
          | Preloading free-atom quantities on grid    :        0.576 s           0.575 s
          | Free-atom superposition energy             :        0.082 s           0.082 s
          | Total time for integrations                :       42.779 s          42.810 s
          | Total time for solution of K.-S. equations :       69.398 s          69.433 s
          | Total time for density & force components  :      128.974 s         129.068 s
          | Total time for mixing & preconditioning    :       11.035 s          11.038 s
          | Total time for Hartree multipole update    :        0.322 s           0.320 s
          | Total time for Hartree multipole sum       :       64.524 s          64.551 s
          | Total time for total energy evaluation     :        0.031 s           0.026 s
          | Total time NSC force correction            :        7.590 s           7.594 s
          | Total time for scaled ZORA corrections     :        0.000 s           0.000 s
          | Total time for vdW correction              :        4.669 s           4.674 s
          | Total time for perturbative SOC            :       19.815 s          19.829 s

          Partial memory accounting:
          | Residual value for overall tracked memory usage across tasks:     0.000000 MB (should be 0.000000 MB)
          | Peak values for overall tracked memory usage:
          |   Minimum:      189.520 MB (on task   5 after allocating temp_cmplx_eienvec)
          |   Maximum:      191.278 MB (on task   0 after allocating temp_cmplx_eienvec)
          |   Average:      189.957 MB
          | Largest tracked array allocation:
          |   Minimum:       82.747 MB (soc_matrix on task   0)
          |   Maximum:       82.747 MB (soc_matrix on task   0)
          |   Average:       82.747 MB
          Note:  These values currently only include a subset of arrays which are explicitly tracked.
          The "true" memory usage will be greater.

          Have a nice day.
------------------------------------------------------------
