------------------------------------------------------------
          Invoking FHI-aims ...

          When using FHI-aims, please cite the following reference:

            Volker Blum, Ralf Gehrke, Felix Hanke, Paula Havu,
            Ville Havu, Xinguo Ren, Karsten Reuter, and Matthias Scheffler,
            'Ab Initio Molecular Simulations with Numeric Atom-Centered Orbitals',
            Computer Physics Communications 180, 2175-2196 (2009)

          In addition, many other developments in FHI-aims are likely important for
          your particular application. A partial list of references is given at the end of
          this file. Thank you for giving credit to the authors of these developments.

          For any questions about FHI-aims, please visit our slack channel at

            https://fhi-aims.slack.com

          and our main development and support site at

            https://aims-git.rz-berlin.mpg.de .

          The latter site, in particular, has a wiki to collect information, as well
          as an issue tracker to log discussions, suggest improvements, and report issues
          or bugs. https://aims-git.rz-berlin.mpg.de is also the main development site
          of the project and all new and updated code versions can be obtained there.
          Please send an email to aims-coordinators@fhi-berlin.mpg.de and we will add
          you to these sites. They are for you and everyone is welcome there.

------------------------------------------------------------



  Date     :  20211006, Time     :  185135.323
  Time zero on CPU 1             :   0.162716000000000E+00  s.
  Internal wall clock time zero  :           402778295.323  s.

  FHI-aims created a unique identifier for this run for later identification
  aims_uuid : 7B5C6A0A-F811-49D2-A116-B91619880E62

  Build configuration of the current instance of FHI-aims
  -------------------------------------------------------
  FHI-aims version      : 210713
  Commit number         : a1a0258ec
  CMake host system     : Linux-5.3.18-24.67-default
  CMake version         : 3.17.0
  Fortran compiler      : /mpcdf/soft/SLE_15/packages/x86_64/intel_parallel_studio/2020.2/compilers_and_libraries_2020.2.254/linux/mpi/intel64/bin/mpiifort (Intel) version 19.1.2.20200623
  Fortran compiler flags: -O3 -ip -fp-model precise
  C compiler            : /mpcdf/soft/SLE_15/packages/x86_64/intel/19.1.2/bin/icc (Intel) version 19.1.2.20200623
  C compiler flags      : -O3 -ip -fp-model precise
  C++ compiler          : /mpcdf/soft/SLE_15/packages/x86_64/intel/19.1.2/bin/icpc (Intel) version 19.1.2.20200623
  C++ compiler flags    : -O3 -ip -fp-model precise
  Using MPI
  Using ScaLAPACK
  Using LibXC
  Using i-PI
  Using RLSY
  Linking against: /mpcdf/soft/SLE_15/packages/x86_64/intel_oneapi/2021.2/mkl/latest/lib/intel64/libmkl_intel_lp64.so
                   /mpcdf/soft/SLE_15/packages/x86_64/intel_oneapi/2021.2/mkl/latest/lib/intel64/libmkl_sequential.so
                   /mpcdf/soft/SLE_15/packages/x86_64/intel_oneapi/2021.2/mkl/latest/lib/intel64/libmkl_core.so
                   /mpcdf/soft/SLE_15/packages/x86_64/intel_oneapi/2021.2/mkl/latest/lib/intel64/libmkl_blacs_intelmpi_lp64.so
                   /mpcdf/soft/SLE_15/packages/x86_64/intel_oneapi/2021.2/mkl/latest/lib/intel64/libmkl_scalapack_lp64.so

  Using      288 parallel tasks.
  Task        0 on host ravg1004 reporting.
  Task        1 on host ravg1004 reporting.
  Task        2 on host ravg1004 reporting.
  Task        3 on host ravg1004 reporting.
  Task        4 on host ravg1004 reporting.
  Task        5 on host ravg1004 reporting.
  Task        6 on host ravg1004 reporting.
  Task        7 on host ravg1004 reporting.
  Task        8 on host ravg1004 reporting.
  Task        9 on host ravg1004 reporting.
  Task       10 on host ravg1004 reporting.
  Task       11 on host ravg1004 reporting.
  Task       12 on host ravg1004 reporting.
  Task       13 on host ravg1004 reporting.
  Task       14 on host ravg1004 reporting.
  Task       15 on host ravg1004 reporting.
  Task       16 on host ravg1004 reporting.
  Task       17 on host ravg1004 reporting.
  Task       18 on host ravg1004 reporting.
  Task       19 on host ravg1004 reporting.
  Task       20 on host ravg1004 reporting.
  Task       21 on host ravg1004 reporting.
  Task       22 on host ravg1004 reporting.
  Task       23 on host ravg1004 reporting.
  Task       24 on host ravg1004 reporting.
  Task       25 on host ravg1004 reporting.
  Task       26 on host ravg1004 reporting.
  Task       27 on host ravg1004 reporting.
  Task       28 on host ravg1004 reporting.
  Task       29 on host ravg1004 reporting.
  Task       30 on host ravg1004 reporting.
  Task       31 on host ravg1004 reporting.
  Task       32 on host ravg1004 reporting.
  Task       33 on host ravg1004 reporting.
  Task       34 on host ravg1004 reporting.
  Task       35 on host ravg1004 reporting.
  Task       36 on host ravg1004 reporting.
  Task       37 on host ravg1004 reporting.
  Task       38 on host ravg1004 reporting.
  Task       39 on host ravg1004 reporting.
  Task       40 on host ravg1004 reporting.
  Task       41 on host ravg1004 reporting.
  Task       42 on host ravg1004 reporting.
  Task       43 on host ravg1004 reporting.
  Task       44 on host ravg1004 reporting.
  Task       45 on host ravg1004 reporting.
  Task       46 on host ravg1004 reporting.
  Task       47 on host ravg1004 reporting.
  Task       48 on host ravg1004 reporting.
  Task       49 on host ravg1004 reporting.
  Task       50 on host ravg1004 reporting.
  Task       51 on host ravg1004 reporting.
  Task       52 on host ravg1004 reporting.
  Task       53 on host ravg1004 reporting.
  Task       54 on host ravg1004 reporting.
  Task       55 on host ravg1004 reporting.
  Task       56 on host ravg1004 reporting.
  Task       57 on host ravg1004 reporting.
  Task       58 on host ravg1004 reporting.
  Task       59 on host ravg1004 reporting.
  Task       60 on host ravg1004 reporting.
  Task       61 on host ravg1004 reporting.
  Task       62 on host ravg1004 reporting.
  Task       63 on host ravg1004 reporting.
  Task       64 on host ravg1004 reporting.
  Task       65 on host ravg1004 reporting.
  Task       66 on host ravg1004 reporting.
  Task       67 on host ravg1004 reporting.
  Task       68 on host ravg1004 reporting.
  Task       69 on host ravg1004 reporting.
  Task       70 on host ravg1004 reporting.
  Task       71 on host ravg1004 reporting.
  Task       72 on host ravg1020 reporting.
  Task       73 on host ravg1020 reporting.
  Task       74 on host ravg1020 reporting.
  Task       75 on host ravg1020 reporting.
  Task       76 on host ravg1020 reporting.
  Task       77 on host ravg1020 reporting.
  Task       78 on host ravg1020 reporting.
  Task       79 on host ravg1020 reporting.
  Task       80 on host ravg1020 reporting.
  Task       81 on host ravg1020 reporting.
  Task       82 on host ravg1020 reporting.
  Task       83 on host ravg1020 reporting.
  Task       84 on host ravg1020 reporting.
  Task       85 on host ravg1020 reporting.
  Task       86 on host ravg1020 reporting.
  Task       87 on host ravg1020 reporting.
  Task       88 on host ravg1020 reporting.
  Task       89 on host ravg1020 reporting.
  Task       90 on host ravg1020 reporting.
  Task       91 on host ravg1020 reporting.
  Task       92 on host ravg1020 reporting.
  Task       93 on host ravg1020 reporting.
  Task       94 on host ravg1020 reporting.
  Task       95 on host ravg1020 reporting.
  Task       96 on host ravg1020 reporting.
  Task       97 on host ravg1020 reporting.
  Task       98 on host ravg1020 reporting.
  Task       99 on host ravg1020 reporting.
  Task      100 on host ravg1020 reporting.
  Task      101 on host ravg1020 reporting.
  Task      102 on host ravg1020 reporting.
  Task      103 on host ravg1020 reporting.
  Task      104 on host ravg1020 reporting.
  Task      105 on host ravg1020 reporting.
  Task      106 on host ravg1020 reporting.
  Task      107 on host ravg1020 reporting.
  Task      108 on host ravg1020 reporting.
  Task      109 on host ravg1020 reporting.
  Task      110 on host ravg1020 reporting.
  Task      111 on host ravg1020 reporting.
  Task      112 on host ravg1020 reporting.
  Task      113 on host ravg1020 reporting.
  Task      114 on host ravg1020 reporting.
  Task      115 on host ravg1020 reporting.
  Task      116 on host ravg1020 reporting.
  Task      117 on host ravg1020 reporting.
  Task      118 on host ravg1020 reporting.
  Task      119 on host ravg1020 reporting.
  Task      120 on host ravg1020 reporting.
  Task      121 on host ravg1020 reporting.
  Task      122 on host ravg1020 reporting.
  Task      123 on host ravg1020 reporting.
  Task      124 on host ravg1020 reporting.
  Task      125 on host ravg1020 reporting.
  Task      126 on host ravg1020 reporting.
  Task      127 on host ravg1020 reporting.
  Task      128 on host ravg1020 reporting.
  Task      129 on host ravg1020 reporting.
  Task      130 on host ravg1020 reporting.
  Task      131 on host ravg1020 reporting.
  Task      132 on host ravg1020 reporting.
  Task      133 on host ravg1020 reporting.
  Task      134 on host ravg1020 reporting.
  Task      135 on host ravg1020 reporting.
  Task      136 on host ravg1020 reporting.
  Task      137 on host ravg1020 reporting.
  Task      138 on host ravg1020 reporting.
  Task      139 on host ravg1020 reporting.
  Task      140 on host ravg1020 reporting.
  Task      141 on host ravg1020 reporting.
  Task      142 on host ravg1020 reporting.
  Task      143 on host ravg1020 reporting.
  Task      144 on host ravg1116 reporting.
  Task      145 on host ravg1116 reporting.
  Task      146 on host ravg1116 reporting.
  Task      147 on host ravg1116 reporting.
  Task      148 on host ravg1116 reporting.
  Task      149 on host ravg1116 reporting.
  Task      150 on host ravg1116 reporting.
  Task      151 on host ravg1116 reporting.
  Task      152 on host ravg1116 reporting.
  Task      153 on host ravg1116 reporting.
  Task      154 on host ravg1116 reporting.
  Task      155 on host ravg1116 reporting.
  Task      156 on host ravg1116 reporting.
  Task      157 on host ravg1116 reporting.
  Task      158 on host ravg1116 reporting.
  Task      159 on host ravg1116 reporting.
  Task      160 on host ravg1116 reporting.
  Task      161 on host ravg1116 reporting.
  Task      162 on host ravg1116 reporting.
  Task      163 on host ravg1116 reporting.
  Task      164 on host ravg1116 reporting.
  Task      165 on host ravg1116 reporting.
  Task      166 on host ravg1116 reporting.
  Task      167 on host ravg1116 reporting.
  Task      168 on host ravg1116 reporting.
  Task      169 on host ravg1116 reporting.
  Task      170 on host ravg1116 reporting.
  Task      171 on host ravg1116 reporting.
  Task      172 on host ravg1116 reporting.
  Task      173 on host ravg1116 reporting.
  Task      174 on host ravg1116 reporting.
  Task      175 on host ravg1116 reporting.
  Task      176 on host ravg1116 reporting.
  Task      177 on host ravg1116 reporting.
  Task      178 on host ravg1116 reporting.
  Task      179 on host ravg1116 reporting.
  Task      180 on host ravg1116 reporting.
  Task      181 on host ravg1116 reporting.
  Task      182 on host ravg1116 reporting.
  Task      183 on host ravg1116 reporting.
  Task      184 on host ravg1116 reporting.
  Task      185 on host ravg1116 reporting.
  Task      186 on host ravg1116 reporting.
  Task      187 on host ravg1116 reporting.
  Task      188 on host ravg1116 reporting.
  Task      189 on host ravg1116 reporting.
  Task      190 on host ravg1116 reporting.
  Task      191 on host ravg1116 reporting.
  Task      192 on host ravg1116 reporting.
  Task      193 on host ravg1116 reporting.
  Task      194 on host ravg1116 reporting.
  Task      195 on host ravg1116 reporting.
  Task      196 on host ravg1116 reporting.
  Task      197 on host ravg1116 reporting.
  Task      198 on host ravg1116 reporting.
  Task      199 on host ravg1116 reporting.
  Task      200 on host ravg1116 reporting.
  Task      201 on host ravg1116 reporting.
  Task      202 on host ravg1116 reporting.
  Task      203 on host ravg1116 reporting.
  Task      204 on host ravg1116 reporting.
  Task      205 on host ravg1116 reporting.
  Task      206 on host ravg1116 reporting.
  Task      207 on host ravg1116 reporting.
  Task      208 on host ravg1116 reporting.
  Task      209 on host ravg1116 reporting.
  Task      210 on host ravg1116 reporting.
  Task      211 on host ravg1116 reporting.
  Task      212 on host ravg1116 reporting.
  Task      213 on host ravg1116 reporting.
  Task      214 on host ravg1116 reporting.
  Task      215 on host ravg1116 reporting.
  Task      216 on host ravg1127 reporting.
  Task      217 on host ravg1127 reporting.
  Task      218 on host ravg1127 reporting.
  Task      219 on host ravg1127 reporting.
  Task      220 on host ravg1127 reporting.
  Task      221 on host ravg1127 reporting.
  Task      222 on host ravg1127 reporting.
  Task      223 on host ravg1127 reporting.
  Task      224 on host ravg1127 reporting.
  Task      225 on host ravg1127 reporting.
  Task      226 on host ravg1127 reporting.
  Task      227 on host ravg1127 reporting.
  Task      228 on host ravg1127 reporting.
  Task      229 on host ravg1127 reporting.
  Task      230 on host ravg1127 reporting.
  Task      231 on host ravg1127 reporting.
  Task      232 on host ravg1127 reporting.
  Task      233 on host ravg1127 reporting.
  Task      234 on host ravg1127 reporting.
  Task      235 on host ravg1127 reporting.
  Task      236 on host ravg1127 reporting.
  Task      237 on host ravg1127 reporting.
  Task      238 on host ravg1127 reporting.
  Task      239 on host ravg1127 reporting.
  Task      240 on host ravg1127 reporting.
  Task      241 on host ravg1127 reporting.
  Task      242 on host ravg1127 reporting.
  Task      243 on host ravg1127 reporting.
  Task      244 on host ravg1127 reporting.
  Task      245 on host ravg1127 reporting.
  Task      246 on host ravg1127 reporting.
  Task      247 on host ravg1127 reporting.
  Task      248 on host ravg1127 reporting.
  Task      249 on host ravg1127 reporting.
  Task      250 on host ravg1127 reporting.
  Task      251 on host ravg1127 reporting.
  Task      252 on host ravg1127 reporting.
  Task      253 on host ravg1127 reporting.
  Task      254 on host ravg1127 reporting.
  Task      255 on host ravg1127 reporting.
  Task      256 on host ravg1127 reporting.
  Task      257 on host ravg1127 reporting.
  Task      258 on host ravg1127 reporting.
  Task      259 on host ravg1127 reporting.
  Task      260 on host ravg1127 reporting.
  Task      261 on host ravg1127 reporting.
  Task      262 on host ravg1127 reporting.
  Task      263 on host ravg1127 reporting.
  Task      264 on host ravg1127 reporting.
  Task      265 on host ravg1127 reporting.
  Task      266 on host ravg1127 reporting.
  Task      267 on host ravg1127 reporting.
  Task      268 on host ravg1127 reporting.
  Task      269 on host ravg1127 reporting.
  Task      270 on host ravg1127 reporting.
  Task      271 on host ravg1127 reporting.
  Task      272 on host ravg1127 reporting.
  Task      273 on host ravg1127 reporting.
  Task      274 on host ravg1127 reporting.
  Task      275 on host ravg1127 reporting.
  Task      276 on host ravg1127 reporting.
  Task      277 on host ravg1127 reporting.
  Task      278 on host ravg1127 reporting.
  Task      279 on host ravg1127 reporting.
  Task      280 on host ravg1127 reporting.
  Task      281 on host ravg1127 reporting.
  Task      282 on host ravg1127 reporting.
  Task      283 on host ravg1127 reporting.
  Task      284 on host ravg1127 reporting.
  Task      285 on host ravg1127 reporting.
  Task      286 on host ravg1127 reporting.
  Task      287 on host ravg1127 reporting.

  Performing system and environment tests:
  | Environment variable OMP_NUM_THREADS correctly set to 1.
  | Checking for ScaLAPACK...
  | Testing pdtran()...
  | All pdtran() tests passed.

  Obtaining array dimensions for all initial allocations:
  
  -----------------------------------------------------------------------
  Parsing control.in (first pass over file, find array dimensions only).
  The contents of control.in will be repeated verbatim below
  unless switched off by setting 'verbatim_writeout .false.' .
  in the first line of control.in .
  -----------------------------------------------------------------------
  
  ##### Physical settings  ################
  xc                 pbe
  spin               none
  charge      0.0
  relativistic       atomic_zora scalar
  #elsi_restart read
  # SCF settings
  
  #vdw_correction_hirshfeld
  occupation_type gaussian       0.01
  # k-grid settings  (to be adjusted)
  k_grid  4 4 1
  #empty_states 8
  include_spin_orbit non_self_consistent
  use_dipole_correction
  #output cube stm -0.5
  #mixer   pulay
  #n_max_pulay        12 # high for metal
  #charge_mix_param   0.07 #low for metal
  
  #output cube stm -0.5
  many_body_dispersion_nl    beta=0.81
  ################################################################################
  #
  #  FHI-aims code project
  # Volker Blum, Fritz Haber Institute Berlin, 2009
  #
  #  Suggested "tight" defaults for S atom (to be pasted into control.in file)
  #
  #  Revised Jan 04, 2011, following tests (SiC) done by Lydia Nemec:
  #     d and g functions of tier 2 now enabled by default.
  #
  ################################################################################
    species        S
  #     global species definitions
      nucleus             16
      mass                32.065
  #
      l_hartree           6
  #
      cut_pot             4.0          2.0  1.0
      basis_dep_cutoff    1e-4
  #
      radial_base         44 7.0
      radial_multiplier   2
      angular_grids       specified
        division   0.4665  110
        division   0.5810  194
        division   0.7139  302
        division   0.8274  434
  #      division   0.9105  590
  #      division   1.0975  770
  #      division   1.2028  974
  #      outer_grid  974
        outer_grid  434
  ################################################################################
  #
  #  Definition of "minimal" basis
  #
  ################################################################################
  #     valence basis states
      valence      3  s   2.
      valence      3  p   4.
  #     ion occupancy
      ion_occ      3  s   1.
      ion_occ      3  p   3.
  ################################################################################
  #
  #  Suggested additional basis functions. For production calculations,
  #  uncomment them one after another (the most important basis functions are
  #  listed first).
  #
  #  Constructed for dimers: 1.6 A, 1.9 A, 2.5 A, 3.25 A, 4.0 A
  #
  ################################################################################
  #  "First tier" - improvements: -652.81 meV to -45.53 meV
       ionic 3 d auto
       hydro 2 p 1.8
       hydro 4 f 7
       ionic 3 s auto
  #  "Second tier" - improvements: -30.20 meV to -1.74 meV
       hydro 4 d 6.2
       hydro 5 g 10.8
  #     hydro 4 p 4.9
  #     hydro 5 f 10
  #     hydro 1 s 0.8
  #  "Third tier" - improvements: -1.04 meV to -0.20 meV
  #     hydro 3 d 3.9
  #     hydro 3 d 2.7
  #     hydro 5 g 12
  #     hydro 4 p 10.4
  #     hydro 5 f 12.4
  #     hydro 2 s 1.9
  #  "Fourth tier" - improvements: -0.35 meV to -0.06 meV
  #     hydro 4 d 10.4
  #     hydro 4 p 7.2
  #     hydro 4 d 10
  #     hydro 5 g 19.2
  #     hydro 4 s 12
  
  ################################################################################
  #
  # For methods that use the localized form of the "resolution of identity" for
  # the two-electron Coulomb operator (RI_method LVL), particularly Hartree-Fock and
  # hybrid density functional calculations, the highest accuracy can be obtained by
  # uncommenting the line beginning with "for_aux"  below, thus adding an extra g radial
  # function to the construction of the product basis set for the expansion.
  # See Ref. New J. Phys. 17, 093020 (2015) for more information, particularly Figs. 1 and 6.
  #
  ################################################################################
  #
  # for_aux hydro 5 g 6.0
  ################################################################################
  #
  #  FHI-aims code project
  # Volker Blum, Fritz Haber Institute Berlin, 2009
  #
  #  Suggested "tight" defaults for Mo atom (to be pasted into control.in file)
  #
  ################################################################################
    species        Mo
  #     global species definitions
      nucleus             42
      mass                95.94
  #
      l_hartree           6
  #
      cut_pot             4.0  2.0  1.0
      basis_dep_cutoff    1e-4
  #
      radial_base         59 7.0
      radial_multiplier   2
      angular_grids specified
        division   0.3117   50
        division   0.6750  110
        division   1.0351  194
        division   1.2073  302
        division   1.6402  434
  #      division   1.9185  590
  #      division   2.0237  770
  #      division   2.0980  974
  #      division   2.7972 1202
  #      outer_grid  974
        outer_grid  434
  ################################################################################
  #
  #  Definition of "minimal" basis
  #
  ################################################################################
  #     valence basis states
      valence      5  s   1.
      valence      4  p   6.
      valence      4  d   5.
  #     ion occupancy
      ion_occ     5  s   0.
      ion_occ     4  p   6.
      ion_occ     4  d   4.
  ################################################################################
  #
  #  Suggested additional basis functions. For production calculations,
  #  uncomment them one after another (the most important basis functions are
  #  listed first).
  #
  #  Constructed for dimers: 1.675 A, 1.9 A, 2.375 A, 3.00 A, 4.00 A
  #
  ################################################################################
  #  "First tier"  - max. impr. -711.23  meV, min. impr. -21.07 meV
       hydro 4 f 8.4
       hydro 3 d 2.8
       ionic 5 p auto
       hydro 5 g 12
       ionic 5 s auto
  #  "Second tier" - max. impr. -39.38  meV, min. impr. -2.68 meV
  #     hydro 4 f 12.4
  #     hydro 3 d 3.3
  #     hydro 6 h 17.2
  #     hydro 4 f 7.6
  #     hydro 3 p 3.0
  #     hydro 1 s 0.65
  #  "Third tier"  - max. impr. -5.50 meV, min. impr. -0.47 meV
  #     hydro 4 f 29.2
  #     hydro 5 g 11.2
  #     hydro 3 d 6.8
  #     hydro 6 h 14.8
  #     hydro 2 p 2.3
  #     hydro 4 s 3.8
  #  "Fourth tier"  - max. impr. -0.58 meV, min. impr. -0.19 meV
  #     hydro 5 f 6.8
  #     hydro 5 d 14.8
  #     hydro 6 s 7.8
  #     hydro 5 g 20.8
  #     hydro 5 d 10.4
  #     hydro 5 p 9.8
  #  Further functions - -0.17 meV and below
  #     hydro 5 d 3.2
  ################################################################################
  #
  #  FHI-aims code project
  # Volker Blum, Fritz Haber Institute Berlin, 2009
  #
  #  Suggested "tight" defaults for W atom (to be pasted into control.in file)
  #
  ################################################################################
    species          W
  #     global species definitions
      nucleus        74
      mass           183.84
  #
      l_hartree      6
  #
      cut_pot        4.0  2.0  1.0
      basis_dep_cutoff    1e-4
  #
      radial_base    71  7.0
      radial_multiplier  2
      angular_grids specified
        division   0.2901   50
        division   0.6986  110
        division   1.0528  194
        division   1.2659  302
        division   1.5223  434
  #      division   1.8111  590
  #      division   2.0105  770
  #      division   2.0413  974
  #      division   2.8804 1202
  #      outer_grid  974
        outer_grid  434
  ################################################################################
  #
  #  Definition of "minimal" basis
  #
  ################################################################################
  #     valence basis states
      valence      6  s   2.
      valence      5  p   6.
      valence      5  d   4.
      valence      4  f  14.
  #     ion occupancy
      ion_occ      6  s   1.
      ion_occ      5  p   6.
      ion_occ      5  d   3.
      ion_occ      4  f  14.
  ################################################################################
  #
  #  Suggested additional basis functions. For production calculations,
  #  uncomment them one after another (the most important basis functions are
  #  listed first).
  #
  #  Constructed for dimers: 1.775, 1.99, 2.50, 3.25, 4.50 AA
  #
  ################################################################################
  #
  #  "First tier" - improvements: -603.77 meV to -28.99 meV
       hydro 4 f 7.8
       hydro 4 d 5.8
       ionic 6 p auto
       hydro 5 g 12.4
       ionic 6 s auto
  #  "Second tier" - improvements: -28.30 meV to -1.31 meV
  #     hydro 6 h 16.8
  #     ionic 5 d auto
  #     hydro 4 f 8.6
  #     hydro 5 g 16.8
  #     hydro 5 d 8.4
  #     hydro 3 p 3.3
  #     hydro 1 s 0.55
  #  "Third tier" - max. impr. -1.79 meV, min. impr. -0.26 meV
  #     hydro 5 f 10.8
  #     hydro 5 g 34.4
  #     hydro 6 h 20.8
  #     hydro 5 g 12.8
  #     hydro 2 p 1.6
  #     hydro 4 s 4.7
  #     hydro 6 d 18.4
  #  "Fourth tier" -0.46 max. impr. - meV, min. impr. -0.09 meV
  #     hydro 6 h 21.6
  #     hydro 5 f 22.4
  #     hydro 4 f 4
  #     hydro 5 p 9.6
  #     hydro 6 d 17.2
  #     hydro 3 p 5.2
  #     hydro 5 g 4.7
  #     hydro 6 s 7.6
  ################################################################################
  #
  #  FHI-aims code project
  # Volker Blum, Fritz Haber Institute Berlin, 2009
  #
  #  Suggested "tight" defaults for Se atom (to be pasted into control.in file)
  #
  ################################################################################
    species        Se
  #     global species definitions
      nucleus             34
      mass                78.96
  #
      l_hartree           6
  #
      cut_pot             4.0          2.0  1.0
      basis_dep_cutoff    1e-4
  #
      radial_base         55 7.0
      radial_multiplier   2
      angular_grids       specified
        division   0.0830  110
        division   0.1357  194
        division   0.7377  302
        division   0.8610  434
  #      division   0.9640  590
  #      division   1.0773  770
  #      division   2.5539  974
  #      outer_grid  974
        outer_grid  434
  ################################################################################
  #
  #  Definition of "minimal" basis
  #
  ################################################################################
  #     valence basis states
      valence      4  s   2.
      valence      4  p   4.
      valence      3  d  10.
  #     ion occupancy
      ion_occ      4  s   1.
      ion_occ      4  p   3.
      ion_occ      3  d  10.
  ################################################################################
  #
  #  Suggested additional basis functions. For production calculations,
  #  uncomment them one after another (the most important basis functions are
  #  listed first).
  #
  #  Constructed for dimers: 1.85 A, 2.15 A, 2.50 A, 3.00 A, 4.00 A
  #
  ################################################################################
  #  "First tier" - improvements: -336.21 meV to -36.85 meV
       hydro 3 d 4.3
       hydro 2 p 1.6
       hydro 4 f 7.2
       ionic 4 s auto
  #  "Second tier" - improvements: -14.39 meV to -1.49 meV
  #     hydro 5 g 10.4
  #     hydro 4 p 4.5
  #     hydro 4 d 6.2
  #     hydro 4 f 11.2
  #     hydro 1 s 0.65
  #     hydro 6 h 15.2
  #  "Third tier" - improvements: -0.46 meV and below
  #     hydro 5 g 14.4
  #     ionic 4 d auto
  #     hydro 4 f 22.4
  #     hydro 5 f 7.4
  #     hydro 5 p 8
  #     hydro 5 s 9.4
  #  "Fourth tier" - improvements: -0.12 meV and below
  #     hydro 5 d 11.6
  #     hydro 6 h 18
  #     hydro 4 p 4
  #     hydro 5 f 16
  #     hydro 4 s 3.9
  
  
  compute_forces .true.
  final_forces_cleaned .true.
  
  -----------------------------------------------------------------------
  Completed first pass over input file control.in .
  -----------------------------------------------------------------------
  
  
  -----------------------------------------------------------------------
  Parsing geometry.in (first pass over file, find array dimensions only).
  The contents of geometry.in will be repeated verbatim below
  unless switched off by setting 'verbatim_writeout .false.' .
  in the first line of geometry.in .
  -----------------------------------------------------------------------
  
  #
  # temporary structure-file for finite-difference calculation of forces
  # displacement  -0.0025 of \# atom    21 direction     0
  #
  lattice_vector   15.83905019   -0.00000000    0.00000000
  lattice_vector   -7.92011750   13.71653974    0.00000000
  lattice_vector   -0.00000000   -0.00000000   99.87375975
  atom    0.03111374    0.95855174    2.59689826  Mo
  atom    1.63518008    1.95968152    4.29138701  Se
  atom    1.63559080    1.96046641    0.90322974  Se
  atom   -1.54985262    3.67518666    2.59734931  Mo
  atom    0.02466787    4.62024120    4.32299892  Se
  atom    0.02507151    4.62110276    0.87251822  Se
  atom   -3.18445086    6.41328843    2.59784003  Mo
  atom   -1.61912902    7.33538735    4.33020727  Se
  atom   -1.61869536    7.33622420    0.86629774  Se
  atom   -4.78479272    9.15118568    2.59829142  Mo
  atom   -3.20131531   10.07721336    4.31348014  Se
  atom   -3.20087637   10.07796329    0.88389393  Se
  atom   -6.35585550   11.89896971    2.59868105  Mo
  atom   -4.77418686   12.84281298    4.31105726  Se
  atom   -4.77374817   12.84354921    0.88708313  Se
  atom    3.19343680    0.97759095    2.59727852  Mo
  atom    4.76382864    1.87088770    4.34302931  Se
  atom    4.76432502    1.87175236    0.85241459  Se
  atom    1.66059738    3.85244419    2.59775352  Mo
  atom    3.32096624    4.83750546    4.29014214  Se
  atom    3.32138211    4.83823606    0.90620739  Se
  atom   -0.03265705    6.43676619    2.59823069  Mo
  atom    1.56010287    7.32835960    4.30000015  Se
  atom    1.56059453    7.32918229    0.89740443  Se
  atom   -1.61014150    9.15914026    2.59869171  Mo
  atom   -0.03575663   10.07802850    4.33112252  Se
  atom   -0.03524143   10.07881054    0.86713669  Se
  atom   -3.19061380   11.91228626    2.59907831  Mo
  atom   -1.60128155   12.82027105    4.31804879  Se
  atom   -1.60078396   12.82104523    0.88095383  Se
  atom    6.33475124    0.93643070    2.59773832  Mo
  atom    7.95610331    1.79296903    4.32349407  Se
  atom    7.95663569    1.79383241    0.87291670  Se
  atom    4.85389838    3.67862511    2.59820262  Mo
  atom    6.44156976    4.50977539    4.33808548  Se
  atom    6.44211804    4.51072089    0.85927450  Se
  atom    4.59742881    7.04869877    4.29117690  Se
  atom    4.59785745    7.04942391    0.90719806  Se
  atom    1.53749103    9.15217328    2.59915864  Mo
  atom    3.13756143   10.01210688    4.32487735  Se
  atom    3.13809125   10.01288280    0.87435732  Se
  atom   -0.01934465   11.89541044    2.59953629  Mo
  atom    1.59026019   12.77633488    4.32183115  Se
  atom    1.59078224   12.77712969    0.87814648  Se
  atom    9.53454812    0.88482064    2.59823028  Mo
  atom   11.11725017    1.81042384    4.31929606  Se
  atom   11.11773561    1.81126245    0.87807380  Se
  atom    7.99501904    3.61354126    2.59868228  Mo
  atom    9.55175201    4.55665438    4.32444399  Se
  atom    9.55223957    4.55754787    0.87387703  Se
  atom    6.36803238    6.30123489    2.59915606  Mo
  atom    7.88804902    7.28222975    4.34495173  Se
  atom    7.88855687    7.28309395    0.85433096  Se
  atom    4.62088297    8.97989448    2.59961275  Mo
  atom    6.24692356    9.94749358    4.29412039  Se
  atom    6.24739557    9.94824147    0.90599307  Se
  atom    3.16930015   11.84892331    2.60002309  Mo
  atom    4.75545276   12.77283090    4.31834100  Se
  atom    4.75593887   12.77360895    0.88258118  Se
  atom   12.69756752    0.89861719    2.59868562  Mo
  atom   14.28168203    1.83799338    4.31696860  Se
  atom   14.28211137    1.83880755    0.88122197  Se
  atom   11.12798601    3.64469540    2.59914011  Mo
  atom   12.69603762    4.57727753    4.32140879  Se
  atom   12.69646925    4.57813351    0.87773242  Se
  atom    9.48334363    6.38990974    2.59962898  Mo
  atom   11.06218350    7.31920049    4.31859116  Se
  atom   11.06261686    7.32001838    0.88152061  Se
  atom    7.87702160    9.08970241    2.60008649  Mo
  atom    9.45617372   10.05575740    4.31247130  Se
  atom    9.45659974   10.05650265    0.88849275  Se
  atom    6.31239359   11.83794992    2.60046775  Mo
  atom    7.90192133   12.81067581    4.30707162  Se
  atom    7.90234194   12.81140581    0.89466592  Se
  
  -----------------------------------------------------------------------
  Completed first pass over input file geometry.in .
  -----------------------------------------------------------------------
  

  Basic array size parameters:
  | Number of species                 :        4
  | Number of atoms                   :       74
  | Number of lattice vectors         :        3
  | Max. basis fn. angular momentum   :        4
  | Max. atomic/ionic basis occupied n:        6
  | Max. number of basis fn. types    :        3
  | Max. radial fns per species/type  :       14
  | Max. logarithmic grid size        :     1483
  | Max. radial integration grid size :      143
  | Max. angular integration grid size:      434
  | Max. angular grid division number :        8
  | Radial grid for Hartree potential :     1483
  | Number of spin channels           :        1

------------------------------------------------------------
          Reading file control.in.
------------------------------------------------------------
  XC: Using PBE gradient-corrected functionals.
  Spin treatment: No spin polarisation.
  Charge =   0.000000E+00: Neutral system requested explicitly.
  Scalar relativistic treatment of kinetic energy: on-site free-atom approximation to ZORA.
  Occupation type: Gaussian broadening, width =   0.100000E-01 eV.
  Found k-point grid:         4         4         1
  Calculating non-self-consistent second-variational spin-orbit coupling after scf-cycle
  Using dipole correction.
  Using libMBD for calculating MBD and TS energies
 
  Reading configuration options for species S                   .
  | Found nuclear charge :  16.0000
  | Found atomic mass :    32.0650000000000      amu
  | Found l_max for Hartree potential  :   6
  | Found cutoff potl. onset [A], width [A], scale factor :    4.00000    2.00000    1.00000
  | Threshold for basis-dependent cutoff potential is   0.100000E-03
  | Found data for basic radial integration grid :    44 points, outermost radius =    7.000 A
  | Found multiplier for basic radial grid :   2
  | Found angular grid specification: user-specified.
  | Specified grid contains     5 separate shells.
  | Check grid settings after all constraints further below.
  | Found free-atom valence shell :  3 s   2.000
  | Found free-atom valence shell :  3 p   4.000
  | Found free-ion valence shell :  3 s   1.000
  | Found free-ion valence shell :  3 p   3.000
  | Found ionic basis function :  3 d , default cutoff radius.
  | Found hydrogenic basis function :  2 p   1.800
  | Found hydrogenic basis function :  4 f   7.000
  | Found ionic basis function :  3 s , default cutoff radius.
  | Found hydrogenic basis function :  4 d   6.200
  | Found hydrogenic basis function :  5 g  10.800
  Species S                   : Missing cutoff potential type.
  Defaulting to exp(1/x)/(1-x)^2 type cutoff potential.
  Species S : No 'logarithmic' tag. Using default grid for free atom:
  | Default logarithmic grid data [bohr] : 0.1000E-03 0.1000E+03 0.1012E+01
  | Will include ionic basis functions of  2.0-fold positive S                    ion.
  Species S : On-site basis accuracy parameter (for Gram-Schmidt orthonormalisation) not specified.
  Using default value basis_acc =  0.1000000E-03.
  Species S                   : Using default innermost maximum threshold i_radial=  2 for radial functions.
  Species S                   : Default cutoff onset for free atom density etc. : 0.40000000E+01 AA.
  Species S                   : Basic radial grid will be enhanced according to radial_multiplier =   2, to contain    89 grid points.
 
  Reading configuration options for species Mo                  .
  | Found nuclear charge :  42.0000
  | Found atomic mass :    95.9400000000000      amu
  | Found l_max for Hartree potential  :   6
  | Found cutoff potl. onset [A], width [A], scale factor :    4.00000    2.00000    1.00000
  | Threshold for basis-dependent cutoff potential is   0.100000E-03
  | Found data for basic radial integration grid :    59 points, outermost radius =    7.000 A
  | Found multiplier for basic radial grid :   2
  | Found angular grid specification: user-specified.
  | Specified grid contains     6 separate shells.
  | Check grid settings after all constraints further below.
  | Found free-atom valence shell :  5 s   1.000
  | Found free-atom valence shell :  4 p   6.000
  | Found free-atom valence shell :  4 d   5.000
  | Found free-ion valence shell :  5 s   0.000
  | Found free-ion valence shell :  4 p   6.000
  | Found free-ion valence shell :  4 d   4.000
  | Found hydrogenic basis function :  4 f   8.400
  | Found hydrogenic basis function :  3 d   2.800
  | Found ionic basis function :  5 p , default cutoff radius.
  | Found hydrogenic basis function :  5 g  12.000
  | Found ionic basis function :  5 s , default cutoff radius.
  Species Mo                  : Missing cutoff potential type.
  Defaulting to exp(1/x)/(1-x)^2 type cutoff potential.
  Species Mo: No 'logarithmic' tag. Using default grid for free atom:
  | Default logarithmic grid data [bohr] : 0.1000E-03 0.1000E+03 0.1012E+01
  | Will include ionic basis functions of  2.0-fold positive Mo                   ion.
  Species Mo: On-site basis accuracy parameter (for Gram-Schmidt orthonormalisation) not specified.
  Using default value basis_acc =  0.1000000E-03.
  Species Mo                  : Using default innermost maximum threshold i_radial=  2 for radial functions.
  Species Mo                  : Default cutoff onset for free atom density etc. : 0.40000000E+01 AA.
  Species Mo                  : Basic radial grid will be enhanced according to radial_multiplier =   2, to contain   119 grid points.
 
  Reading configuration options for species W                   .
  | Found nuclear charge :  74.0000
  | Found atomic mass :    183.840000000000      amu
  | Found l_max for Hartree potential  :   6
  | Found cutoff potl. onset [A], width [A], scale factor :    4.00000    2.00000    1.00000
  | Threshold for basis-dependent cutoff potential is   0.100000E-03
  | Found data for basic radial integration grid :    71 points, outermost radius =    7.000 A
  | Found multiplier for basic radial grid :   2
  | Found angular grid specification: user-specified.
  | Specified grid contains     6 separate shells.
  | Check grid settings after all constraints further below.
  | Found free-atom valence shell :  6 s   2.000
  | Found free-atom valence shell :  5 p   6.000
  | Found free-atom valence shell :  5 d   4.000
  | Found free-atom valence shell :  4 f  14.000
  | Found free-ion valence shell :  6 s   1.000
  | Found free-ion valence shell :  5 p   6.000
  | Found free-ion valence shell :  5 d   3.000
  | Found free-ion valence shell :  4 f  14.000
  | Found hydrogenic basis function :  4 f   7.800
  | Found hydrogenic basis function :  4 d   5.800
  | Found ionic basis function :  6 p , default cutoff radius.
  | Found hydrogenic basis function :  5 g  12.400
  | Found ionic basis function :  6 s , default cutoff radius.
  Species W                   : Missing cutoff potential type.
  Defaulting to exp(1/x)/(1-x)^2 type cutoff potential.
  Species W : No 'logarithmic' tag. Using default grid for free atom:
  | Default logarithmic grid data [bohr] : 0.1000E-03 0.1000E+03 0.1012E+01
  | Will include ionic basis functions of  2.0-fold positive W                    ion.
  Species W : On-site basis accuracy parameter (for Gram-Schmidt orthonormalisation) not specified.
  Using default value basis_acc =  0.1000000E-03.
  Species W                   : Using default innermost maximum threshold i_radial=  2 for radial functions.
  Species W                   : Default cutoff onset for free atom density etc. : 0.40000000E+01 AA.
  Species W                   : Basic radial grid will be enhanced according to radial_multiplier =   2, to contain   143 grid points.
 
  Reading configuration options for species Se                  .
  | Found nuclear charge :  34.0000
  | Found atomic mass :    78.9600000000000      amu
  | Found l_max for Hartree potential  :   6
  | Found cutoff potl. onset [A], width [A], scale factor :    4.00000    2.00000    1.00000
  | Threshold for basis-dependent cutoff potential is   0.100000E-03
  | Found data for basic radial integration grid :    55 points, outermost radius =    7.000 A
  | Found multiplier for basic radial grid :   2
  | Found angular grid specification: user-specified.
  | Specified grid contains     5 separate shells.
  | Check grid settings after all constraints further below.
  | Found free-atom valence shell :  4 s   2.000
  | Found free-atom valence shell :  4 p   4.000
  | Found free-atom valence shell :  3 d  10.000
  | Found free-ion valence shell :  4 s   1.000
  | Found free-ion valence shell :  4 p   3.000
  | Found free-ion valence shell :  3 d  10.000
  | Found hydrogenic basis function :  3 d   4.300
  | Found hydrogenic basis function :  2 p   1.600
  | Found hydrogenic basis function :  4 f   7.200
  | Found ionic basis function :  4 s , default cutoff radius.
  Species Se                  : Missing cutoff potential type.
  Defaulting to exp(1/x)/(1-x)^2 type cutoff potential.
  Species Se: No 'logarithmic' tag. Using default grid for free atom:
  | Default logarithmic grid data [bohr] : 0.1000E-03 0.1000E+03 0.1012E+01
  | Will include ionic basis functions of  2.0-fold positive Se                   ion.
  Species Se: On-site basis accuracy parameter (for Gram-Schmidt orthonormalisation) not specified.
  Using default value basis_acc =  0.1000000E-03.
  Species Se                  : Using default innermost maximum threshold i_radial=  2 for radial functions.
  Species Se                  : Default cutoff onset for free atom density etc. : 0.40000000E+01 AA.
  Species Se                  : Basic radial grid will be enhanced according to radial_multiplier =   2, to contain   111 grid points.
  Forces will be computed.
  Cleaning forces before final output.
 
  Finished reading input file 'control.in'.
 
------------------------------------------------------------


------------------------------------------------------------
          Reading geometry description geometry.in.
------------------------------------------------------------
  | The smallest distance between any two atoms is         2.49392652 AA.
  | The first atom of this pair is atom number                     23 .
  | The second atom of this pair is atom number                    39 .
  | Wigner-Seitz cell of the first atom image           0     0     0 .
  | (The Wigner-Seitz cell of the second atom is 0 0 0  by definition.)

  Symmetry information by spglib:
  | Precision set to  0.1E-04
  | Number of Operations  : 1
  | Space group           : 1
  | International         : P1
  | Schoenflies           : C1^1
  Input structure read successfully.
  The structure contains       74 atoms,  and a total of       2708.000 electrons.

  Input geometry:
  | Unit cell:
  |       15.83905019        0.00000000        0.00000000
  |       -7.92011750       13.71653974        0.00000000
  |        0.00000000        0.00000000       99.87375975
  | Atomic structure:
  |       Atom                x [A]            y [A]            z [A]
  |    1: Species Mo            0.03111374        0.95855174        2.59689826
  |    2: Species Se            1.63518008        1.95968152        4.29138701
  |    3: Species Se            1.63559080        1.96046641        0.90322974
  |    4: Species Mo           -1.54985262        3.67518666        2.59734931
  |    5: Species Se            0.02466787        4.62024120        4.32299892
  |    6: Species Se            0.02507151        4.62110276        0.87251822
  |    7: Species Mo           -3.18445086        6.41328843        2.59784003
  |    8: Species Se           -1.61912902        7.33538735        4.33020727
  |    9: Species Se           -1.61869536        7.33622420        0.86629774
  |   10: Species Mo           -4.78479272        9.15118568        2.59829142
  |   11: Species Se           -3.20131531       10.07721336        4.31348014
  |   12: Species Se           -3.20087637       10.07796329        0.88389393
  |   13: Species Mo           -6.35585550       11.89896971        2.59868105
  |   14: Species Se           -4.77418686       12.84281298        4.31105726
  |   15: Species Se           -4.77374817       12.84354921        0.88708313
  |   16: Species Mo            3.19343680        0.97759095        2.59727852
  |   17: Species Se            4.76382864        1.87088770        4.34302931
  |   18: Species Se            4.76432502        1.87175236        0.85241459
  |   19: Species Mo            1.66059738        3.85244419        2.59775352
  |   20: Species Se            3.32096624        4.83750546        4.29014214
  |   21: Species Se            3.32138211        4.83823606        0.90620739
  |   22: Species Mo           -0.03265705        6.43676619        2.59823069
  |   23: Species Se            1.56010287        7.32835960        4.30000015
  |   24: Species Se            1.56059453        7.32918229        0.89740443
  |   25: Species Mo           -1.61014150        9.15914026        2.59869171
  |   26: Species Se           -0.03575663       10.07802850        4.33112252
  |   27: Species Se           -0.03524143       10.07881054        0.86713669
  |   28: Species Mo           -3.19061380       11.91228626        2.59907831
  |   29: Species Se           -1.60128155       12.82027105        4.31804879
  |   30: Species Se           -1.60078396       12.82104523        0.88095383
  |   31: Species Mo            6.33475124        0.93643070        2.59773832
  |   32: Species Se            7.95610331        1.79296903        4.32349407
  |   33: Species Se            7.95663569        1.79383241        0.87291670
  |   34: Species Mo            4.85389838        3.67862511        2.59820262
  |   35: Species Se            6.44156976        4.50977539        4.33808548
  |   36: Species Se            6.44211804        4.51072089        0.85927450
  |   37: Species Se            4.59742881        7.04869877        4.29117690
  |   38: Species Se            4.59785745        7.04942391        0.90719806
  |   39: Species Mo            1.53749103        9.15217328        2.59915864
  |   40: Species Se            3.13756143       10.01210688        4.32487735
  |   41: Species Se            3.13809125       10.01288280        0.87435732
  |   42: Species Mo           -0.01934465       11.89541044        2.59953629
  |   43: Species Se            1.59026019       12.77633488        4.32183115
  |   44: Species Se            1.59078224       12.77712969        0.87814648
  |   45: Species Mo            9.53454812        0.88482064        2.59823028
  |   46: Species Se           11.11725017        1.81042384        4.31929606
  |   47: Species Se           11.11773561        1.81126245        0.87807380
  |   48: Species Mo            7.99501904        3.61354126        2.59868228
  |   49: Species Se            9.55175201        4.55665438        4.32444399
  |   50: Species Se            9.55223957        4.55754787        0.87387703
  |   51: Species Mo            6.36803238        6.30123489        2.59915606
  |   52: Species Se            7.88804902        7.28222975        4.34495173
  |   53: Species Se            7.88855687        7.28309395        0.85433096
  |   54: Species Mo            4.62088297        8.97989448        2.59961275
  |   55: Species Se            6.24692356        9.94749358        4.29412039
  |   56: Species Se            6.24739557        9.94824147        0.90599307
  |   57: Species Mo            3.16930015       11.84892331        2.60002309
  |   58: Species Se            4.75545276       12.77283090        4.31834100
  |   59: Species Se            4.75593887       12.77360895        0.88258118
  |   60: Species Mo           12.69756752        0.89861719        2.59868562
  |   61: Species Se           14.28168203        1.83799338        4.31696860
  |   62: Species Se           14.28211137        1.83880755        0.88122197
  |   63: Species Mo           11.12798601        3.64469540        2.59914011
  |   64: Species Se           12.69603762        4.57727753        4.32140879
  |   65: Species Se           12.69646925        4.57813351        0.87773242
  |   66: Species Mo            9.48334363        6.38990974        2.59962898
  |   67: Species Se           11.06218350        7.31920049        4.31859116
  |   68: Species Se           11.06261686        7.32001838        0.88152061
  |   69: Species Mo            7.87702160        9.08970241        2.60008649
  |   70: Species Se            9.45617372       10.05575740        4.31247130
  |   71: Species Se            9.45659974       10.05650265        0.88849275
  |   72: Species Mo            6.31239359       11.83794992        2.60046775
  |   73: Species Se            7.90192133       12.81067581        4.30707162
  |   74: Species Se            7.90234194       12.81140581        0.89466592

  Lattice parameters for 3D lattice (in Angstroms) :    15.839050   15.838931   99.873760
  Angle(s) between unit vectors (in degrees)       :    90.000000   90.000000  120.002724


  Quantities derived from the lattice vectors:
  | Reciprocal lattice vector 1:  0.396690  0.229054  0.000000
  | Reciprocal lattice vector 2: -0.000000  0.458074  0.000000
  | Reciprocal lattice vector 3:  0.000000  0.000000  0.062911
  | Unit cell volume                               :   0.216983E+05  A^3

  Fractional coordinates:
                         L1                L2                L3
       atom_frac         0.03690844        0.06988291        0.02600181  Mo
       atom_frac         0.17467758        0.14286996        0.04296811  Se
       atom_frac         0.17473212        0.14292718        0.00904371  Se
       atom_frac         0.03612908        0.26793832        0.02600632  Mo
       atom_frac         0.16998862        0.33683723        0.04328463  Se
       atom_frac         0.17004551        0.33690004        0.00873621  Se
       atom_frac         0.03274625        0.46755877        0.02601124  Mo
       atom_frac         0.16518818        0.53478410        0.04335681  Se
       atom_frac         0.16524607        0.53484511        0.00867393  Se
       atom_frac         0.03151874        0.66716430        0.02601576  Mo
       atom_frac         0.16525015        0.73467606        0.04318932  Se
       atom_frac         0.16530520        0.73473073        0.00885011  Se
       atom_frac         0.03250020        0.86749063        0.02601966  Mo
       atom_frac         0.16676687        0.93630123        0.04316506  Se
       atom_frac         0.16682141        0.93635490        0.00888204  Se
       atom_frac         0.23725609        0.07127096        0.02600561  Mo
       atom_frac         0.36896813        0.13639648        0.04348519  Se
       atom_frac         0.36903099        0.13645951        0.00853492  Se
       atom_frac         0.24528310        0.28086123        0.02601037  Mo
       atom_frac         0.38602113        0.35267681        0.04295565  Se
       atom_frac         0.38607402        0.35273007        0.00907353  Se
       atom_frac         0.23259095        0.46927041        0.02601515  Mo
       atom_frac         0.36565310        0.53427174        0.04305435  Se
       atom_frac         0.36571414        0.53433172        0.00898539  Se
       atom_frac         0.23224065        0.66774423        0.02601976  Mo
       atom_frac         0.36513773        0.73473549        0.04336597  Se
       atom_frac         0.36519876        0.73479250        0.00868233  Se
       atom_frac         0.23282350        0.86846147        0.02602364  Mo
       atom_frac         0.36626680        0.93465781        0.04323507  Se
       atom_frac         0.36632643        0.93471426        0.00882067  Se
       atom_frac         0.43408279        0.06827018        0.02601022  Mo
       atom_frac         0.56767218        0.13071584        0.04328959  Se
       atom_frac         0.56773727        0.13077879        0.00874020  Se
       atom_frac         0.44055589        0.26818900        0.02601487  Mo
       atom_frac         0.57109332        0.32878375        0.04343569  Se
       atom_frac         0.57116240        0.32885268        0.00860361  Se
       atom_frac         0.54721992        0.51388316        0.04296601  Se
       atom_frac         0.54727342        0.51393602        0.00908345  Se
       atom_frac         0.43071276        0.66723630        0.02602444  Mo
       atom_frac         0.56308230        0.72992949        0.04330344  Se
       atom_frac         0.56314403        0.72998606        0.00875463  Se
       atom_frac         0.43242668        0.86723114        0.02602822  Mo
       atom_frac         0.56616340        0.93145466        0.04327294  Se
       atom_frac         0.56622534        0.93151261        0.00879256  Se
       atom_frac         0.63422084        0.06450757        0.02601514  Mo
       atom_frac         0.76788781        0.13198838        0.04324756  Se
       atom_frac         0.76794903        0.13204952        0.00879184  Se
       atom_frac         0.63649821        0.26344408        0.02601967  Mo
       atom_frac         0.76916396        0.33220145        0.04329910  Se
       atom_frac         0.76922731        0.33226659        0.00874982  Se
       atom_frac         0.63175831        0.45938954        0.02602441  Mo
       atom_frac         0.76348694        0.53090866        0.04350444  Se
       atom_frac         0.76355051        0.53097167        0.00855411  Se
       atom_frac         0.61910258        0.65467637        0.02602899  Mo
       atom_frac         0.75703670        0.72521888        0.04299548  Se
       atom_frac         0.75709377        0.72527340        0.00907138  Se
       atom_frac         0.63204739        0.86384201        0.02603310  Mo
       atom_frac         0.76587041        0.93119920        0.04323799  Se
       atom_frac         0.76592947        0.93125593        0.00883697  Se
       atom_frac         0.83442133        0.06551340        0.02601970  Mo
       atom_frac         0.96867958        0.13399833        0.04322425  Se
       atom_frac         0.96873637        0.13405768        0.00882336  Se
       atom_frac         0.83543412        0.26571537        0.02602425  Mo
       atom_frac         0.96843056        0.33370497        0.04326871  Se
       atom_frac         0.96848901        0.33376738        0.00878842  Se
       atom_frac         0.83167644        0.46585435        0.02602915  Mo
       atom_frac         0.96523401        0.53360400        0.04324050  Se
       atom_frac         0.96529118        0.53366363        0.00882635  Se
       atom_frac         0.82868227        0.66268188        0.02603373  Mo
       atom_frac         0.96359979        0.73311182        0.04317922  Se
       atom_frac         0.96365386        0.73316615        0.00889616  Se
       atom_frac         0.83008687        0.86304200        0.02603755  Mo
       atom_frac         0.96590265        0.93395828        0.04312516  Se
       atom_frac         0.96595582        0.93401150        0.00895797  Se

 
  Finished reading input file 'control.in'.
 

------------------------------------------------------------
          Reading geometry description geometry.in.
------------------------------------------------------------
 
  Consistency checks for stacksize environment parameter are next.
 
  | Maximum stacksize for task 0: unlimited
  | Maximum stacksize for task 1: unlimited
  | Maximum stacksize for task 2: unlimited
  | Maximum stacksize for task 3: unlimited
  | Maximum stacksize for task 4: unlimited
  | Maximum stacksize for task 5: unlimited
  | Maximum stacksize for task 6: unlimited
  | Maximum stacksize for task 7: unlimited
  | Maximum stacksize for task 8: unlimited
  | Maximum stacksize for task 9: unlimited
  | Maximum stacksize for task 10: unlimited
  | Maximum stacksize for task 11: unlimited
  | Maximum stacksize for task 12: unlimited
  | Maximum stacksize for task 13: unlimited
  | Maximum stacksize for task 14: unlimited
  | Maximum stacksize for task 15: unlimited
  | Maximum stacksize for task 16: unlimited
  | Maximum stacksize for task 17: unlimited
  | Maximum stacksize for task 18: unlimited
  | Maximum stacksize for task 19: unlimited
  | Maximum stacksize for task 20: unlimited
  | Maximum stacksize for task 21: unlimited
  | Maximum stacksize for task 22: unlimited
  | Maximum stacksize for task 23: unlimited
  | Maximum stacksize for task 24: unlimited
  | Maximum stacksize for task 25: unlimited
  | Maximum stacksize for task 26: unlimited
  | Maximum stacksize for task 27: unlimited
  | Maximum stacksize for task 28: unlimited
  | Maximum stacksize for task 29: unlimited
  | Maximum stacksize for task 30: unlimited
  | Maximum stacksize for task 31: unlimited
  | Maximum stacksize for task 32: unlimited
  | Maximum stacksize for task 33: unlimited
  | Maximum stacksize for task 34: unlimited
  | Maximum stacksize for task 35: unlimited
  | Maximum stacksize for task 36: unlimited
  | Maximum stacksize for task 37: unlimited
  | Maximum stacksize for task 38: unlimited
  | Maximum stacksize for task 39: unlimited
  | Maximum stacksize for task 40: unlimited
  | Maximum stacksize for task 41: unlimited
  | Maximum stacksize for task 42: unlimited
  | Maximum stacksize for task 43: unlimited
  | Maximum stacksize for task 44: unlimited
  | Maximum stacksize for task 45: unlimited
  | Maximum stacksize for task 46: unlimited
  | Maximum stacksize for task 47: unlimited
  | Maximum stacksize for task 48: unlimited
  | Maximum stacksize for task 49: unlimited
  | Maximum stacksize for task 50: unlimited
  | Maximum stacksize for task 51: unlimited
  | Maximum stacksize for task 52: unlimited
  | Maximum stacksize for task 53: unlimited
  | Maximum stacksize for task 54: unlimited
  | Maximum stacksize for task 55: unlimited
  | Maximum stacksize for task 56: unlimited
  | Maximum stacksize for task 57: unlimited
  | Maximum stacksize for task 58: unlimited
  | Maximum stacksize for task 59: unlimited
  | Maximum stacksize for task 60: unlimited
  | Maximum stacksize for task 61: unlimited
  | Maximum stacksize for task 62: unlimited
  | Maximum stacksize for task 63: unlimited
  | Maximum stacksize for task 64: unlimited
  | Maximum stacksize for task 65: unlimited
  | Maximum stacksize for task 66: unlimited
  | Maximum stacksize for task 67: unlimited
  | Maximum stacksize for task 68: unlimited
  | Maximum stacksize for task 69: unlimited
  | Maximum stacksize for task 70: unlimited
  | Maximum stacksize for task 71: unlimited
  | Maximum stacksize for task 72: unlimited
  | Maximum stacksize for task 73: unlimited
  | Maximum stacksize for task 74: unlimited
  | Maximum stacksize for task 75: unlimited
  | Maximum stacksize for task 76: unlimited
  | Maximum stacksize for task 77: unlimited
  | Maximum stacksize for task 78: unlimited
  | Maximum stacksize for task 79: unlimited
  | Maximum stacksize for task 80: unlimited
  | Maximum stacksize for task 81: unlimited
  | Maximum stacksize for task 82: unlimited
  | Maximum stacksize for task 83: unlimited
  | Maximum stacksize for task 84: unlimited
  | Maximum stacksize for task 85: unlimited
  | Maximum stacksize for task 86: unlimited
  | Maximum stacksize for task 87: unlimited
  | Maximum stacksize for task 88: unlimited
  | Maximum stacksize for task 89: unlimited
  | Maximum stacksize for task 90: unlimited
  | Maximum stacksize for task 91: unlimited
  | Maximum stacksize for task 92: unlimited
  | Maximum stacksize for task 93: unlimited
  | Maximum stacksize for task 94: unlimited
  | Maximum stacksize for task 95: unlimited
  | Maximum stacksize for task 96: unlimited
  | Maximum stacksize for task 97: unlimited
  | Maximum stacksize for task 98: unlimited
  | Maximum stacksize for task 99: unlimited
  | Maximum stacksize for task 100: unlimited
  | Maximum stacksize for task 101: unlimited
  | Maximum stacksize for task 102: unlimited
  | Maximum stacksize for task 103: unlimited
  | Maximum stacksize for task 104: unlimited
  | Maximum stacksize for task 105: unlimited
  | Maximum stacksize for task 106: unlimited
  | Maximum stacksize for task 107: unlimited
  | Maximum stacksize for task 108: unlimited
  | Maximum stacksize for task 109: unlimited
  | Maximum stacksize for task 110: unlimited
  | Maximum stacksize for task 111: unlimited
  | Maximum stacksize for task 112: unlimited
  | Maximum stacksize for task 113: unlimited
  | Maximum stacksize for task 114: unlimited
  | Maximum stacksize for task 115: unlimited
  | Maximum stacksize for task 116: unlimited
  | Maximum stacksize for task 117: unlimited
  | Maximum stacksize for task 118: unlimited
  | Maximum stacksize for task 119: unlimited
  | Maximum stacksize for task 120: unlimited
  | Maximum stacksize for task 121: unlimited
  | Maximum stacksize for task 122: unlimited
  | Maximum stacksize for task 123: unlimited
  | Maximum stacksize for task 124: unlimited
  | Maximum stacksize for task 125: unlimited
  | Maximum stacksize for task 126: unlimited
  | Maximum stacksize for task 127: unlimited
  | Maximum stacksize for task 128: unlimited
  | Maximum stacksize for task 129: unlimited
  | Maximum stacksize for task 130: unlimited
  | Maximum stacksize for task 131: unlimited
  | Maximum stacksize for task 132: unlimited
  | Maximum stacksize for task 133: unlimited
  | Maximum stacksize for task 134: unlimited
  | Maximum stacksize for task 135: unlimited
  | Maximum stacksize for task 136: unlimited
  | Maximum stacksize for task 137: unlimited
  | Maximum stacksize for task 138: unlimited
  | Maximum stacksize for task 139: unlimited
  | Maximum stacksize for task 140: unlimited
  | Maximum stacksize for task 141: unlimited
  | Maximum stacksize for task 142: unlimited
  | Maximum stacksize for task 143: unlimited
  | Maximum stacksize for task 144: unlimited
  | Maximum stacksize for task 145: unlimited
  | Maximum stacksize for task 146: unlimited
  | Maximum stacksize for task 147: unlimited
  | Maximum stacksize for task 148: unlimited
  | Maximum stacksize for task 149: unlimited
  | Maximum stacksize for task 150: unlimited
  | Maximum stacksize for task 151: unlimited
  | Maximum stacksize for task 152: unlimited
  | Maximum stacksize for task 153: unlimited
  | Maximum stacksize for task 154: unlimited
  | Maximum stacksize for task 155: unlimited
  | Maximum stacksize for task 156: unlimited
  | Maximum stacksize for task 157: unlimited
  | Maximum stacksize for task 158: unlimited
  | Maximum stacksize for task 159: unlimited
  | Maximum stacksize for task 160: unlimited
  | Maximum stacksize for task 161: unlimited
  | Maximum stacksize for task 162: unlimited
  | Maximum stacksize for task 163: unlimited
  | Maximum stacksize for task 164: unlimited
  | Maximum stacksize for task 165: unlimited
  | Maximum stacksize for task 166: unlimited
  | Maximum stacksize for task 167: unlimited
  | Maximum stacksize for task 168: unlimited
  | Maximum stacksize for task 169: unlimited
  | Maximum stacksize for task 170: unlimited
  | Maximum stacksize for task 171: unlimited
  | Maximum stacksize for task 172: unlimited
  | Maximum stacksize for task 173: unlimited
  | Maximum stacksize for task 174: unlimited
  | Maximum stacksize for task 175: unlimited
  | Maximum stacksize for task 176: unlimited
  | Maximum stacksize for task 177: unlimited
  | Maximum stacksize for task 178: unlimited
  | Maximum stacksize for task 179: unlimited
  | Maximum stacksize for task 180: unlimited
  | Maximum stacksize for task 181: unlimited
  | Maximum stacksize for task 182: unlimited
  | Maximum stacksize for task 183: unlimited
  | Maximum stacksize for task 184: unlimited
  | Maximum stacksize for task 185: unlimited
  | Maximum stacksize for task 186: unlimited
  | Maximum stacksize for task 187: unlimited
  | Maximum stacksize for task 188: unlimited
  | Maximum stacksize for task 189: unlimited
  | Maximum stacksize for task 190: unlimited
  | Maximum stacksize for task 191: unlimited
  | Maximum stacksize for task 192: unlimited
  | Maximum stacksize for task 193: unlimited
  | Maximum stacksize for task 194: unlimited
  | Maximum stacksize for task 195: unlimited
  | Maximum stacksize for task 196: unlimited
  | Maximum stacksize for task 197: unlimited
  | Maximum stacksize for task 198: unlimited
  | Maximum stacksize for task 199: unlimited
  | Maximum stacksize for task 200: unlimited
  | Maximum stacksize for task 201: unlimited
  | Maximum stacksize for task 202: unlimited
  | Maximum stacksize for task 203: unlimited
  | Maximum stacksize for task 204: unlimited
  | Maximum stacksize for task 205: unlimited
  | Maximum stacksize for task 206: unlimited
  | Maximum stacksize for task 207: unlimited
  | Maximum stacksize for task 208: unlimited
  | Maximum stacksize for task 209: unlimited
  | Maximum stacksize for task 210: unlimited
  | Maximum stacksize for task 211: unlimited
  | Maximum stacksize for task 212: unlimited
  | Maximum stacksize for task 213: unlimited
  | Maximum stacksize for task 214: unlimited
  | Maximum stacksize for task 215: unlimited
  | Maximum stacksize for task 216: unlimited
  | Maximum stacksize for task 217: unlimited
  | Maximum stacksize for task 218: unlimited
  | Maximum stacksize for task 219: unlimited
  | Maximum stacksize for task 220: unlimited
  | Maximum stacksize for task 221: unlimited
  | Maximum stacksize for task 222: unlimited
  | Maximum stacksize for task 223: unlimited
  | Maximum stacksize for task 224: unlimited
  | Maximum stacksize for task 225: unlimited
  | Maximum stacksize for task 226: unlimited
  | Maximum stacksize for task 227: unlimited
  | Maximum stacksize for task 228: unlimited
  | Maximum stacksize for task 229: unlimited
  | Maximum stacksize for task 230: unlimited
  | Maximum stacksize for task 231: unlimited
  | Maximum stacksize for task 232: unlimited
  | Maximum stacksize for task 233: unlimited
  | Maximum stacksize for task 234: unlimited
  | Maximum stacksize for task 235: unlimited
  | Maximum stacksize for task 236: unlimited
  | Maximum stacksize for task 237: unlimited
  | Maximum stacksize for task 238: unlimited
  | Maximum stacksize for task 239: unlimited
  | Maximum stacksize for task 240: unlimited
  | Maximum stacksize for task 241: unlimited
  | Maximum stacksize for task 242: unlimited
  | Maximum stacksize for task 243: unlimited
  | Maximum stacksize for task 244: unlimited
  | Maximum stacksize for task 245: unlimited
  | Maximum stacksize for task 246: unlimited
  | Maximum stacksize for task 247: unlimited
  | Maximum stacksize for task 248: unlimited
  | Maximum stacksize for task 249: unlimited
  | Maximum stacksize for task 250: unlimited
  | Maximum stacksize for task 251: unlimited
  | Maximum stacksize for task 252: unlimited
  | Maximum stacksize for task 253: unlimited
  | Maximum stacksize for task 254: unlimited
  | Maximum stacksize for task 255: unlimited
  | Maximum stacksize for task 256: unlimited
  | Maximum stacksize for task 257: unlimited
  | Maximum stacksize for task 258: unlimited
  | Maximum stacksize for task 259: unlimited
  | Maximum stacksize for task 260: unlimited
  | Maximum stacksize for task 261: unlimited
  | Maximum stacksize for task 262: unlimited
  | Maximum stacksize for task 263: unlimited
  | Maximum stacksize for task 264: unlimited
  | Maximum stacksize for task 265: unlimited
  | Maximum stacksize for task 266: unlimited
  | Maximum stacksize for task 267: unlimited
  | Maximum stacksize for task 268: unlimited
  | Maximum stacksize for task 269: unlimited
  | Maximum stacksize for task 270: unlimited
  | Maximum stacksize for task 271: unlimited
  | Maximum stacksize for task 272: unlimited
  | Maximum stacksize for task 273: unlimited
  | Maximum stacksize for task 274: unlimited
  | Maximum stacksize for task 275: unlimited
  | Maximum stacksize for task 276: unlimited
  | Maximum stacksize for task 277: unlimited
  | Maximum stacksize for task 278: unlimited
  | Maximum stacksize for task 279: unlimited
  | Maximum stacksize for task 280: unlimited
  | Maximum stacksize for task 281: unlimited
  | Maximum stacksize for task 282: unlimited
  | Maximum stacksize for task 283: unlimited
  | Maximum stacksize for task 284: unlimited
  | Maximum stacksize for task 285: unlimited
  | Maximum stacksize for task 286: unlimited
  | Maximum stacksize for task 287: unlimited
  | Current stacksize for task 0: unlimited
  | Current stacksize for task 1: unlimited
  | Current stacksize for task 2: unlimited
  | Current stacksize for task 3: unlimited
  | Current stacksize for task 4: unlimited
  | Current stacksize for task 5: unlimited
  | Current stacksize for task 6: unlimited
  | Current stacksize for task 7: unlimited
  | Current stacksize for task 8: unlimited
  | Current stacksize for task 9: unlimited
  | Current stacksize for task 10: unlimited
  | Current stacksize for task 11: unlimited
  | Current stacksize for task 12: unlimited
  | Current stacksize for task 13: unlimited
  | Current stacksize for task 14: unlimited
  | Current stacksize for task 15: unlimited
  | Current stacksize for task 16: unlimited
  | Current stacksize for task 17: unlimited
  | Current stacksize for task 18: unlimited
  | Current stacksize for task 19: unlimited
  | Current stacksize for task 20: unlimited
  | Current stacksize for task 21: unlimited
  | Current stacksize for task 22: unlimited
  | Current stacksize for task 23: unlimited
  | Current stacksize for task 24: unlimited
  | Current stacksize for task 25: unlimited
  | Current stacksize for task 26: unlimited
  | Current stacksize for task 27: unlimited
  | Current stacksize for task 28: unlimited
  | Current stacksize for task 29: unlimited
  | Current stacksize for task 30: unlimited
  | Current stacksize for task 31: unlimited
  | Current stacksize for task 32: unlimited
  | Current stacksize for task 33: unlimited
  | Current stacksize for task 34: unlimited
  | Current stacksize for task 35: unlimited
  | Current stacksize for task 36: unlimited
  | Current stacksize for task 37: unlimited
  | Current stacksize for task 38: unlimited
  | Current stacksize for task 39: unlimited
  | Current stacksize for task 40: unlimited
  | Current stacksize for task 41: unlimited
  | Current stacksize for task 42: unlimited
  | Current stacksize for task 43: unlimited
  | Current stacksize for task 44: unlimited
  | Current stacksize for task 45: unlimited
  | Current stacksize for task 46: unlimited
  | Current stacksize for task 47: unlimited
  | Current stacksize for task 48: unlimited
  | Current stacksize for task 49: unlimited
  | Current stacksize for task 50: unlimited
  | Current stacksize for task 51: unlimited
  | Current stacksize for task 52: unlimited
  | Current stacksize for task 53: unlimited
  | Current stacksize for task 54: unlimited
  | Current stacksize for task 55: unlimited
  | Current stacksize for task 56: unlimited
  | Current stacksize for task 57: unlimited
  | Current stacksize for task 58: unlimited
  | Current stacksize for task 59: unlimited
  | Current stacksize for task 60: unlimited
  | Current stacksize for task 61: unlimited
  | Current stacksize for task 62: unlimited
  | Current stacksize for task 63: unlimited
  | Current stacksize for task 64: unlimited
  | Current stacksize for task 65: unlimited
  | Current stacksize for task 66: unlimited
  | Current stacksize for task 67: unlimited
  | Current stacksize for task 68: unlimited
  | Current stacksize for task 69: unlimited
  | Current stacksize for task 70: unlimited
  | Current stacksize for task 71: unlimited
  | Current stacksize for task 72: unlimited
  | Current stacksize for task 73: unlimited
  | Current stacksize for task 74: unlimited
  | Current stacksize for task 75: unlimited
  | Current stacksize for task 76: unlimited
  | Current stacksize for task 77: unlimited
  | Current stacksize for task 78: unlimited
  | Current stacksize for task 79: unlimited
  | Current stacksize for task 80: unlimited
  | Current stacksize for task 81: unlimited
  | Current stacksize for task 82: unlimited
  | Current stacksize for task 83: unlimited
  | Current stacksize for task 84: unlimited
  | Current stacksize for task 85: unlimited
  | Current stacksize for task 86: unlimited
  | Current stacksize for task 87: unlimited
  | Current stacksize for task 88: unlimited
  | Current stacksize for task 89: unlimited
  | Current stacksize for task 90: unlimited
  | Current stacksize for task 91: unlimited
  | Current stacksize for task 92: unlimited
  | Current stacksize for task 93: unlimited
  | Current stacksize for task 94: unlimited
  | Current stacksize for task 95: unlimited
  | Current stacksize for task 96: unlimited
  | Current stacksize for task 97: unlimited
  | Current stacksize for task 98: unlimited
  | Current stacksize for task 99: unlimited
  | Current stacksize for task 100: unlimited
  | Current stacksize for task 101: unlimited
  | Current stacksize for task 102: unlimited
  | Current stacksize for task 103: unlimited
  | Current stacksize for task 104: unlimited
  | Current stacksize for task 105: unlimited
  | Current stacksize for task 106: unlimited
  | Current stacksize for task 107: unlimited
  | Current stacksize for task 108: unlimited
  | Current stacksize for task 109: unlimited
  | Current stacksize for task 110: unlimited
  | Current stacksize for task 111: unlimited
  | Current stacksize for task 112: unlimited
  | Current stacksize for task 113: unlimited
  | Current stacksize for task 114: unlimited
  | Current stacksize for task 115: unlimited
  | Current stacksize for task 116: unlimited
  | Current stacksize for task 117: unlimited
  | Current stacksize for task 118: unlimited
  | Current stacksize for task 119: unlimited
  | Current stacksize for task 120: unlimited
  | Current stacksize for task 121: unlimited
  | Current stacksize for task 122: unlimited
  | Current stacksize for task 123: unlimited
  | Current stacksize for task 124: unlimited
  | Current stacksize for task 125: unlimited
  | Current stacksize for task 126: unlimited
  | Current stacksize for task 127: unlimited
  | Current stacksize for task 128: unlimited
  | Current stacksize for task 129: unlimited
  | Current stacksize for task 130: unlimited
  | Current stacksize for task 131: unlimited
  | Current stacksize for task 132: unlimited
  | Current stacksize for task 133: unlimited
  | Current stacksize for task 134: unlimited
  | Current stacksize for task 135: unlimited
  | Current stacksize for task 136: unlimited
  | Current stacksize for task 137: unlimited
  | Current stacksize for task 138: unlimited
  | Current stacksize for task 139: unlimited
  | Current stacksize for task 140: unlimited
  | Current stacksize for task 141: unlimited
  | Current stacksize for task 142: unlimited
  | Current stacksize for task 143: unlimited
  | Current stacksize for task 144: unlimited
  | Current stacksize for task 145: unlimited
  | Current stacksize for task 146: unlimited
  | Current stacksize for task 147: unlimited
  | Current stacksize for task 148: unlimited
  | Current stacksize for task 149: unlimited
  | Current stacksize for task 150: unlimited
  | Current stacksize for task 151: unlimited
  | Current stacksize for task 152: unlimited
  | Current stacksize for task 153: unlimited
  | Current stacksize for task 154: unlimited
  | Current stacksize for task 155: unlimited
  | Current stacksize for task 156: unlimited
  | Current stacksize for task 157: unlimited
  | Current stacksize for task 158: unlimited
  | Current stacksize for task 159: unlimited
  | Current stacksize for task 160: unlimited
  | Current stacksize for task 161: unlimited
  | Current stacksize for task 162: unlimited
  | Current stacksize for task 163: unlimited
  | Current stacksize for task 164: unlimited
  | Current stacksize for task 165: unlimited
  | Current stacksize for task 166: unlimited
  | Current stacksize for task 167: unlimited
  | Current stacksize for task 168: unlimited
  | Current stacksize for task 169: unlimited
  | Current stacksize for task 170: unlimited
  | Current stacksize for task 171: unlimited
  | Current stacksize for task 172: unlimited
  | Current stacksize for task 173: unlimited
  | Current stacksize for task 174: unlimited
  | Current stacksize for task 175: unlimited
  | Current stacksize for task 176: unlimited
  | Current stacksize for task 177: unlimited
  | Current stacksize for task 178: unlimited
  | Current stacksize for task 179: unlimited
  | Current stacksize for task 180: unlimited
  | Current stacksize for task 181: unlimited
  | Current stacksize for task 182: unlimited
  | Current stacksize for task 183: unlimited
  | Current stacksize for task 184: unlimited
  | Current stacksize for task 185: unlimited
  | Current stacksize for task 186: unlimited
  | Current stacksize for task 187: unlimited
  | Current stacksize for task 188: unlimited
  | Current stacksize for task 189: unlimited
  | Current stacksize for task 190: unlimited
  | Current stacksize for task 191: unlimited
  | Current stacksize for task 192: unlimited
  | Current stacksize for task 193: unlimited
  | Current stacksize for task 194: unlimited
  | Current stacksize for task 195: unlimited
  | Current stacksize for task 196: unlimited
  | Current stacksize for task 197: unlimited
  | Current stacksize for task 198: unlimited
  | Current stacksize for task 199: unlimited
  | Current stacksize for task 200: unlimited
  | Current stacksize for task 201: unlimited
  | Current stacksize for task 202: unlimited
  | Current stacksize for task 203: unlimited
  | Current stacksize for task 204: unlimited
  | Current stacksize for task 205: unlimited
  | Current stacksize for task 206: unlimited
  | Current stacksize for task 207: unlimited
  | Current stacksize for task 208: unlimited
  | Current stacksize for task 209: unlimited
  | Current stacksize for task 210: unlimited
  | Current stacksize for task 211: unlimited
  | Current stacksize for task 212: unlimited
  | Current stacksize for task 213: unlimited
  | Current stacksize for task 214: unlimited
  | Current stacksize for task 215: unlimited
  | Current stacksize for task 216: unlimited
  | Current stacksize for task 217: unlimited
  | Current stacksize for task 218: unlimited
[...]
   3417       0.00000                      11.076122          11.081828             0.051524
   3418       0.00000                      11.076122          11.081828             0.000000
   3419       0.00000                      11.093300          11.111980             0.030152
   3420       0.00000                      11.093300          11.111980             0.000000
   3421       0.00000                      11.156473          11.136759             0.024779
   3422       0.00000                      11.156473          11.136759             0.000000
   3423       0.00000                      11.169865          11.174326             0.037568
   3424       0.00000                      11.169865          11.174326             0.000000
   3425       0.00000                      11.192407          11.214916             0.040590
   3426       0.00000                      11.192407          11.214916             0.000000
   3427       0.00000                      11.192802          11.233952             0.019036
   3428       0.00000                      11.192802          11.233952             0.000000
   3429       0.00000                      11.223223          11.263041             0.029089
   3430       0.00000                      11.223223          11.263041             0.000000
   3431       0.00000                      11.227776          11.268311             0.005270
   3432       0.00000                      11.227776          11.268311             0.000000
   3433       0.00000                      11.274975          11.308299             0.039988
   3434       0.00000                      11.274975          11.308299             0.000000
   3435       0.00000                      11.551990          11.541557             0.233258
   3436       0.00000                      11.551990          11.541557             0.000000
   3437       0.00000                      11.564181          11.603888             0.062331
   3438       0.00000                      11.564181          11.603888             0.000000
   3439       0.00000                      11.671713          11.672686             0.068798
   3440       0.00000                      11.671713          11.672686             0.000000
   3441       0.00000                      11.712646          11.717560             0.044874
   3442       0.00000                      11.712646          11.717560             0.000000
   3443       0.00000                      11.971637          11.970169             0.252609
   3444       0.00000                      11.971637          11.970169             0.000000
   3445       0.00000                      11.977758          11.980945             0.010776
   3446       0.00000                      11.977758          11.980945             0.000000
   3447       0.00000                      12.043954          12.042321             0.061376
   3448       0.00000                      12.043954          12.042321             0.000000
   3449       0.00000                      12.064679          12.066725             0.024404
   3450       0.00000                      12.064679          12.066725             0.000000
   3451       0.00000                      12.101378          12.103066             0.036341
   3452       0.00000                      12.101378          12.103066             0.000000
   3453       0.00000                      12.166137          12.166853             0.063787
   3454       0.00000                      12.166137          12.166853             0.000000
   3455       0.00000                      12.691640          12.689597             0.522744
   3456       0.00000                      12.691640          12.689597             0.000000
   3457       0.00000                      12.749841          12.755850             0.066253
   3458       0.00000                      12.749841          12.755850             0.000000
   3459       0.00000                      12.813690          12.828358             0.072508
   3460       0.00000                      12.813690          12.828358             0.000000
   3461       0.00000                      12.843340          12.858822             0.030463
   3462       0.00000                      12.843340          12.858822             0.000000
   3463       0.00000                      12.914176          12.918542             0.059720
   3464       0.00000                      12.914176          12.918542             0.000000
   3465       0.00000                      12.950526          12.945994             0.027452
   3466       0.00000                      12.950526          12.945994             0.000000
   3467       0.00000                      12.950794          12.965920             0.019926
   3468       0.00000                      12.950794          12.965920             0.000000
   3469       0.00000                      12.960132          12.975092             0.009172
   3470       0.00000                      12.960132          12.975092             0.000000
   3471       0.00000                      13.020550          13.031073             0.055981
   3472       0.00000                      13.020550          13.031073             0.000000
   3473       0.00000                      13.073676          13.078952             0.047879
   3474       0.00000                      13.073676          13.078952             0.000000
   3475       0.00000                      13.087923          13.102722             0.023770
   3476       0.00000                      13.087923          13.102722             0.000000
   3477       0.00000                      13.116114          13.122003             0.019281
   3478       0.00000                      13.116114          13.122003             0.000000
   3479       0.00000                      13.163668          13.167999             0.045996
   3480       0.00000                      13.163668          13.167999             0.000000
   3481       0.00000                      13.173351          13.176297             0.008298
   3482       0.00000                      13.173351          13.176297             0.000000
   3483       0.00000                      13.174616          13.183358             0.007061
   3484       0.00000                      13.174616          13.183358             0.000000
   3485       0.00000                      13.268939          13.274517             0.091159
   3486       0.00000                      13.268939          13.274517             0.000000
   3487       0.00000                      13.371453          13.372754             0.098237
   3488       0.00000                      13.371453          13.372754             0.000000
   3489       0.00000                      13.388919          13.393226             0.020472
   3490       0.00000                      13.388919          13.393226             0.000000
   3491       0.00000                      13.413941          13.417172             0.023946
   3492       0.00000                      13.413941          13.417172             0.000000
   3493       0.00000                      13.472006          13.473350             0.056178
   3494       0.00000                      13.472006          13.473350             0.000000
   3495       0.00000                      13.563204          13.566875             0.093525
   3496       0.00000                      13.563204          13.566875             0.000000
   3497       0.00000                      13.597780          13.599170             0.032295
   3498       0.00000                      13.597780          13.599170             0.000000
   3499       0.00000                      13.607940          13.611189             0.012019
   3500       0.00000                      13.607940          13.611189             0.000000
   3501       0.00000                      13.685094          13.688662             0.077473
   3502       0.00000                      13.685094          13.688662             0.000000
   3503       0.00000                      13.707399          13.710372             0.021710
   3504       0.00000                      13.707399          13.710372             0.000000
   3505       0.00000                      13.709724          13.713223             0.002851
   3506       0.00000                      13.709724          13.713223             0.000000
   3507       0.00000                      13.723129          13.728655             0.015432
   3508       0.00000                      13.723129          13.728655             0.000000
   3509       0.00000                      13.741736          13.746415             0.017760
   3510       0.00000                      13.741736          13.746415             0.000000
   3511       0.00000                      13.771975          13.776040             0.029625
   3512       0.00000                      13.771975          13.776040             0.000000
   3513       0.00000                      13.840426          13.844895             0.068855
   3514       0.00000                      13.840426          13.844895             0.000000
   3515       0.00000                      13.886759          13.888145             0.043250
   3516       0.00000                      13.886759          13.888145             0.000000
   3517       0.00000                      13.920894          13.922915             0.034770
   3518       0.00000                      13.920894          13.922915             0.000000
   3519       0.00000                      13.962347          13.970884             0.047968
   3520       0.00000                      13.962347          13.970884             0.000000
   3521       0.00000                      14.005661          14.018750             0.047867
   3522       0.00000                      14.005661          14.018750             0.000000

  What follows are estimated values for band gap, HOMO, LUMO, etc.
  | They are estimated on a discrete k-point grid and not necessarily exact.
  | For converged numbers, create a DOS and/or band structure plot on a denser k-grid.

  Highest occupied state (VBM) at     -4.98201153 eV (relative to internal zero)
  | Occupation number:      1.00000000
  | K-point:       9 at    0.500000    0.500000    0.000000 (in units of recip. lattice)

  Lowest unoccupied state (CBM) at    -4.52617954 eV (relative to internal zero)
  | Occupation number:      0.00000000
  | K-point:       1 at    0.000000    0.000000    0.000000 (in units of recip. lattice)

  ESTIMATED overall HOMO-LUMO gap:      0.45583199 eV between HOMO at k-point 9 and LUMO at k-point 1
  | This appears to be an indirect band gap.
  | Smallest direct gap :      0.47463930 eV for k_point 1 at    0.000000    0.000000    0.000000 (in units of recip. lattice)
  The gap value is above 0.2 eV. Unless you are using a very sparse k-point grid,
  this system is most likely an insulator or a semiconductor.
  | Potential vacuum level, "upper" slab surface:    -0.06123846 eV
  | Potential vacuum level, "lower" slab surface:    -0.06054360 eV
  | Work function ("upper" slab surface)        :     4.57924199 eV
  | Work function ("lower" slab surface)        :     4.57993685 eV
  *** Warning: band gap may exist, check the suitability to define work function using chemical potential.
  | VBM (reference: upper vacuum level)         :     4.92077307 eV
  | CBM (reference: upper vacuum level)         :     4.46494108 eV

  Spin-orbit coupling                                     :  max(cpu_time)    wall_clock(cpu1)
  | Computing matrix elements for SOC operator            :          8.153               8.156
  | Constructing second-variational Hamiltonian           :         23.783              23.785
  | Diagonalizing second-variational Hamiltonian          :          3.421               3.421
  | Syncing data and calculating occupations              :         22.095               0.242
  | Writing out data, calculating band gaps, etc.         :          0.022               0.022
  | Total SOC time                                        :         35.627              35.627

  Partial memory accounting:
  | Current value for overall tracked memory usage:
  |   Minimum:       57.871 MB (on task   6)
  |   Maximum:       59.978 MB (on task   0)
  |   Average:       58.380 MB
  | Peak value for overall tracked memory usage:
  |   Minimum:      173.774 MB (on task  77 after allocating potential_shell)
  |   Maximum:      179.111 MB (on task  59 after allocating potential_shell)
  |   Average:      176.239 MB
  | Largest tracked array allocation so far:
  |   Minimum:       89.081 MB (soc_matrix on task   0)
  |   Maximum:       89.081 MB (soc_matrix on task   0)
  |   Average:       89.081 MB
  Note:  These values currently only include a subset of arrays which are explicitly tracked.
  The "true" memory usage will be greater.
 ------------------------------------------------------------

------------------------------------------------------------------------------
  Final output of selected total energy values:

  The following output summarizes some interesting total energy values
  at the end of a run (AFTER all relaxation, molecular dynamics, etc.).

  | Total energy of the DFT / Hartree-Fock s.c.f. calculation      :       -5997073.703973226 eV
  | Final zero-broadening corrected energy (caution - metals only) :       -5997073.703973226 eV
  | Total energy after non-SC SOC correction (DO NOT USE)          :       -5997078.024278486 eV
  | For reference only, the value of 1 Hartree used in FHI-aims is :             27.211384500 eV
  | For reference only, the overall average (free atom contribution
  | + realspace contribution) of the electrostatic potential after
  | s.c.f. convergence is                                          :             -1.323661817 eV

  Before relying on these values, please be sure to understand exactly which
  total energy value is referred to by a given number. Different objects may
  all carry the same name 'total energy'. Definitions:

  Total energy of the DFT / Hartree-Fock s.c.f. calculation:
  | Note that this energy does not include ANY quantities calculated after the
  | s.c.f. cycle, in particular not ANY RPA, MP2, etc. many-body perturbation terms.

  Final zero-broadening corrected energy:
  | For metallic systems only, a broadening of the occupation numbers at the Fermi
  | level can be extrapolated back to zero broadening by an electron-gas inspired
  | formula. For all systems that are not real metals, this value can be
  | meaningless and should be avoided.

------------------------------------------------------------------------------
  Methods described in the following list of references were used in this FHI-aims run.
  If you publish the results, please make sure to cite these reference if they apply.
  FHI-aims is an academic code, and for our developers (often, Ph.D. students
  and postdocs), scientific credit in the community is essential.
  Thank you for helping us!

  For any use of FHI-aims, please cite:

    Volker Blum, Ralf Gehrke, Felix Hanke, Paula Havu, Ville Havu,
    Xinguo Ren, Karsten Reuter, and Matthias Scheffler
    'Ab initio molecular simulations with numeric atom-centered orbitals'
    Computer Physics Communications 180, 2175-2196 (2009)
    http://dx.doi.org/10.1016/j.cpc.2009.06.022


  The provided symmetry information was generated with SPGlib:

    Atsushi Togo, Yusuke Seto, Dimitar Pashov
    SPGlib 1.7.3 obtained from http://spglib.sourceforge.net
    Copyright (C) 2008 Atsushi Togo


  For second-variational spin-orbit coupling used in your run, please cite:

    William P. Huhn and Volker Blum,
    'One-hundred-three compound band-structure benchmark of post-self-consistent'
    'spin-orbit coupling treatments in density functional theory'
    Phys. Rev. Materials 1, 033803 (2017).


  The ELSI infrastructure was used in your run to solve the Kohn-Sham electronic structure.
  Please check out http://elsi-interchange.org to learn more.
  If scalability is important for your project, please acknowledge ELSI by citing:

    V. W-z. Yu, F. Corsetti, A. Garcia, W. P. Huhn, M. Jacquelin, W. Jia,
    B. Lange, L. Lin, J. Lu, W. Mi, A. Seifitokaldani, A. Vazquez-Mayagoitia,
    C. Yang, H. Yang, and V. Blum
    'ELSI: A unified software interface for Kohn-Sham electronic structure solvers'
    Computer Physics Communications 222, 267-285 (2018).
    http://dx.doi.org/10.1016/j.cpc.2017.09.007


  For the real-space grid partitioning and parallelization used in this calculation, please cite:

    Ville Havu, Volker Blum, Paula Havu, and Matthias Scheffler,
    'Efficient O(N) integration for all-electron electronic structure calculation'
    'using numerically tabulated basis functions'
    Journal of Computational Physics 228, 8367-8379 (2009).
    http://dx.doi.org/10.1016/j.jcp.2009.08.008

  Of course, there are many other important community references, e.g., those cited in the
  above references. Our list is limited to references that describe implementations in the
  FHI-aims code. The reason is purely practical (length of this list) - please credit others as well.

------------------------------------------------------------
          Leaving FHI-aims.
          Date     :  20211006, Time     :  185523.931

          Computational steps:
          | Number of self-consistency cycles          :           23
          | Number of SCF (re)initializations          :            1

          Detailed time accounting                     :  max(cpu_time)    wall_clock(cpu1)
          | Total time                                 :      228.483 s         228.608 s
          | Preparation time                           :        1.004 s           1.004 s
          | Boundary condition initalization           :        0.755 s           0.755 s
          | Grid partitioning                          :        0.851 s           0.851 s
          | Preloading free-atom quantities on grid    :        0.327 s           0.325 s
          | Free-atom superposition energy             :        0.040 s           0.040 s
          | Total time for integrations                :       24.052 s          24.053 s
          | Total time for solution of K.-S. equations :       53.863 s          53.857 s
          | Total time for density & force components  :       72.635 s          72.639 s
          | Total time for mixing & preconditioning    :        5.407 s           5.295 s
          | Total time for Hartree multipole update    :        0.262 s           0.261 s
          | Total time for Hartree multipole sum       :       27.168 s          27.167 s
          | Total time for total energy evaluation     :        0.024 s           0.024 s
          | Total time NSC force correction            :        1.940 s           1.940 s
          | Total time for scaled ZORA corrections     :        0.000 s           0.000 s
          | Total time for vdW correction              :        4.135 s           4.135 s
          | Total time for perturbative SOC            :       35.627 s          35.627 s

          Partial memory accounting:
          | Residual value for overall tracked memory usage across tasks:     0.000000 MB (should be 0.000000 MB)
          | Peak values for overall tracked memory usage:
          |   Minimum:      173.774 MB (on task  77 after allocating potential_shell)
          |   Maximum:      179.111 MB (on task  59 after allocating potential_shell)
          |   Average:      176.239 MB
          | Largest tracked array allocation:
          |   Minimum:       89.081 MB (soc_matrix on task   0)
          |   Maximum:       89.081 MB (soc_matrix on task   0)
          |   Average:       89.081 MB
          Note:  These values currently only include a subset of arrays which are explicitly tracked.
          The "true" memory usage will be greater.

          Have a nice day.
------------------------------------------------------------
