nqpoint: 300    
npath: 6      
segment_nqpoint:
- 50
- 50
- 50
- 50
- 50
- 50
labels:
- [ 'G', 'X' ]
- [ 'X', 'M' ]
- [ 'M', 'G' ]
- [ 'G', 'R' ]
- [ 'R', 'X|M' ]
- [ 'X|M', 'R' ]
reciprocal_lattice:
- [   0.32442846,   0.00000000,   0.00000000 ] # a*
- [   0.00000000,   0.32442846,   0.00000000 ] # b*
- [   0.00000000,   0.00000000,   0.32442846 ] # c*
natom: 2      
lattice:
- [     3.082343660000000,     0.000000000000000,     0.000000000000000 ] # a
- [     0.000000000000000,     3.082343660000000,     0.000000000000000 ] # b
- [     0.000000000000000,     0.000000000000000,     3.082343660000000 ] # c
points:
- symbol: Mo # 1
  coordinates: [  0.000000000000000,  0.000000000000000,  0.000000000000000 ]
  mass: 95.950000
- symbol: Mo # 2
  coordinates: [  0.500000000000000,  0.500000000000000,  0.500000000000000 ]
  mass: 95.950000

phonon:
- q-position: [    0.0000000,    0.0000000,    0.0000000 ]
  distance:    0.0000000
  band:
  - # 1
    frequency:   -0.0000000713
  - # 2
    frequency:    0.0000000000
  - # 3
    frequency:    0.0000000446
  - # 4
    frequency:    6.1353096245
  - # 5
    frequency:    6.1353096245
  - # 6
    frequency:    6.1353096245

- q-position: [    0.0000000,    0.0102041,    0.0000000 ]
  distance:    0.0033105
  band:
  - # 1
    frequency:    0.0983358078
  - # 2
    frequency:    0.0983358078
  - # 3
    frequency:    0.0983358078
  - # 4
    frequency:    6.1345215182
  - # 5
    frequency:    6.1345215182
  - # 6
    frequency:    6.1345215182

- q-position: [    0.0000000,    0.0204082,    0.0000000 ]
  distance:    0.0066210
  band:
  - # 1
    frequency:    0.1966463524
  - # 2
    frequency:    0.1966463524
  - # 3
    frequency:    0.1966463524
  - # 4
    frequency:    6.1321574018
  - # 5
    frequency:    6.1321574018
  - # 6
    frequency:    6.1321574018

- q-position: [    0.0000000,    0.0306122,    0.0000000 ]
  distance:    0.0099315
  band:
  - # 1
    frequency:    0.2949063768
  - # 2
    frequency:    0.2949063768
  - # 3
    frequency:    0.2949063768
  - # 4
    frequency:    6.1282178827
  - # 5
    frequency:    6.1282178827
  - # 6
    frequency:    6.1282178827

- q-position: [    0.0000000,    0.0408163,    0.0000000 ]
  distance:    0.0132420
  band:
  - # 1
    frequency:    0.3930906373
  - # 2
    frequency:    0.3930906373
  - # 3
    frequency:    0.3930906373
  - # 4
    frequency:    6.1227039729
  - # 5
    frequency:    6.1227039729
  - # 6
    frequency:    6.1227039729

- q-position: [    0.0000000,    0.0510204,    0.0000000 ]
  distance:    0.0165525
  band:
  - # 1
    frequency:    0.4911739095
  - # 2
    frequency:    0.4911739095
  - # 3
    frequency:    0.4911739095
  - # 4
    frequency:    6.1156170890
  - # 5
    frequency:    6.1156170890
  - # 6
    frequency:    6.1156170890

- q-position: [    0.0000000,    0.0612245,    0.0000000 ]
  distance:    0.0198630
  band:
  - # 1
    frequency:    0.5891309950
  - # 2
    frequency:    0.5891309950
  - # 3
    frequency:    0.5891309950
  - # 4
    frequency:    6.1069590517
  - # 5
    frequency:    6.1069590517
  - # 6
    frequency:    6.1069590517

- q-position: [    0.0000000,    0.0714286,    0.0000000 ]
  distance:    0.0231735
  band:
  - # 1
    frequency:    0.6869367278
  - # 2
    frequency:    0.6869367278
  - # 3
    frequency:    0.6869367278
  - # 4
    frequency:    6.0967320853
  - # 5
    frequency:    6.0967320853
  - # 6
    frequency:    6.0967320853

- q-position: [    0.0000000,    0.0816327,    0.0000000 ]
  distance:    0.0264840
  band:
  - # 1
    frequency:    0.7845659808
  - # 2
    frequency:    0.7845659808
  - # 3
    frequency:    0.7845659808
  - # 4
    frequency:    6.0849388173
  - # 5
    frequency:    6.0849388173
  - # 6
    frequency:    6.0849388173

- q-position: [    0.0000000,    0.0918367,    0.0000000 ]
  distance:    0.0297945
  band:
  - # 1
    frequency:    0.8819936722
  - # 2
    frequency:    0.8819936722
  - # 3
    frequency:    0.8819936722
  - # 4
    frequency:    6.0715822774
  - # 5
    frequency:    6.0715822774
  - # 6
    frequency:    6.0715822774

- q-position: [    0.0000000,    0.1020408,    0.0000000 ]
  distance:    0.0331049
  band:
  - # 1
    frequency:    0.9791947721
  - # 2
    frequency:    0.9791947721
  - # 3
    frequency:    0.9791947721
  - # 4
    frequency:    6.0566658969
  - # 5
    frequency:    6.0566658969
  - # 6
    frequency:    6.0566658969

- q-position: [    0.0000000,    0.1122449,    0.0000000 ]
  distance:    0.0364154
  band:
  - # 1
    frequency:    1.0761443085
  - # 2
    frequency:    1.0761443085
  - # 3
    frequency:    1.0761443085
  - # 4
    frequency:    6.0401935081
  - # 5
    frequency:    6.0401935081
  - # 6
    frequency:    6.0401935081

- q-position: [    0.0000000,    0.1224490,    0.0000000 ]
  distance:    0.0397259
  band:
  - # 1
    frequency:    1.1728173745
  - # 2
    frequency:    1.1728173745
  - # 3
    frequency:    1.1728173745
  - # 4
    frequency:    6.0221693429
  - # 5
    frequency:    6.0221693429
  - # 6
    frequency:    6.0221693429

- q-position: [    0.0000000,    0.1326531,    0.0000000 ]
  distance:    0.0430364
  band:
  - # 1
    frequency:    1.2691891338
  - # 2
    frequency:    1.2691891338
  - # 3
    frequency:    1.2691891338
  - # 4
    frequency:    6.0025980318
  - # 5
    frequency:    6.0025980318
  - # 6
    frequency:    6.0025980318

- q-position: [    0.0000000,    0.1428571,    0.0000000 ]
  distance:    0.0463469
  band:
  - # 1
    frequency:    1.3652348278
  - # 2
    frequency:    1.3652348278
  - # 3
    frequency:    1.3652348278
  - # 4
    frequency:    5.9814846028
  - # 5
    frequency:    5.9814846028
  - # 6
    frequency:    5.9814846028

- q-position: [    0.0000000,    0.1530612,    0.0000000 ]
  distance:    0.0496574
  band:
  - # 1
    frequency:    1.4609297814
  - # 2
    frequency:    1.4609297814
  - # 3
    frequency:    1.4609297814
  - # 4
    frequency:    5.9588344802
  - # 5
    frequency:    5.9588344802
  - # 6
    frequency:    5.9588344802

- q-position: [    0.0000000,    0.1632653,    0.0000000 ]
  distance:    0.0529679
  band:
  - # 1
    frequency:    1.5562494100
  - # 2
    frequency:    1.5562494100
  - # 3
    frequency:    1.5562494100
  - # 4
    frequency:    5.9346534829
  - # 5
    frequency:    5.9346534829
  - # 6
    frequency:    5.9346534829

- q-position: [    0.0000000,    0.1734694,    0.0000000 ]
  distance:    0.0562784
  band:
  - # 1
    frequency:    1.6511692249
  - # 2
    frequency:    1.6511692249
  - # 3
    frequency:    1.6511692249
  - # 4
    frequency:    5.9089478234
  - # 5
    frequency:    5.9089478234
  - # 6
    frequency:    5.9089478234

- q-position: [    0.0000000,    0.1836735,    0.0000000 ]
  distance:    0.0595889
  band:
  - # 1
    frequency:    1.7456648407
  - # 2
    frequency:    1.7456648407
  - # 3
    frequency:    1.7456648407
  - # 4
    frequency:    5.8817241054
  - # 5
    frequency:    5.8817241054
  - # 6
    frequency:    5.8817241054

- q-position: [    0.0000000,    0.1938776,    0.0000000 ]
  distance:    0.0628994
  band:
  - # 1
    frequency:    1.8397119805
  - # 2
    frequency:    1.8397119805
  - # 3
    frequency:    1.8397119805
  - # 4
    frequency:    5.8529893232
  - # 5
    frequency:    5.8529893232
  - # 6
    frequency:    5.8529893232

- q-position: [    0.0000000,    0.2040816,    0.0000000 ]
  distance:    0.0662099
  band:
  - # 1
    frequency:    1.9332864828
  - # 2
    frequency:    1.9332864828
  - # 3
    frequency:    1.9332864828
  - # 4
    frequency:    5.8227508588
  - # 5
    frequency:    5.8227508588
  - # 6
    frequency:    5.8227508588

- q-position: [    0.0000000,    0.2142857,    0.0000000 ]
  distance:    0.0695204
  band:
  - # 1
    frequency:    2.0263643076
  - # 2
    frequency:    2.0263643076
  - # 3
    frequency:    2.0263643076
  - # 4
    frequency:    5.7910164809
  - # 5
    frequency:    5.7910164809
  - # 6
    frequency:    5.7910164809

- q-position: [    0.0000000,    0.2244898,    0.0000000 ]
  distance:    0.0728309
  band:
  - # 1
    frequency:    2.1189215424
  - # 2
    frequency:    2.1189215424
  - # 3
    frequency:    2.1189215424
  - # 4
    frequency:    5.7577943421
  - # 5
    frequency:    5.7577943421
  - # 6
    frequency:    5.7577943421

- q-position: [    0.0000000,    0.2346939,    0.0000000 ]
  distance:    0.0761414
  band:
  - # 1
    frequency:    2.2109344084
  - # 2
    frequency:    2.2109344084
  - # 3
    frequency:    2.2109344084
  - # 4
    frequency:    5.7230929776
  - # 5
    frequency:    5.7230929776
  - # 6
    frequency:    5.7230929776

- q-position: [    0.0000000,    0.2448980,    0.0000000 ]
  distance:    0.0794519
  band:
  - # 1
    frequency:    2.3023792668
  - # 2
    frequency:    2.3023792668
  - # 3
    frequency:    2.3023792668
  - # 4
    frequency:    5.6869213025
  - # 5
    frequency:    5.6869213025
  - # 6
    frequency:    5.6869213025

- q-position: [    0.0000000,    0.2551020,    0.0000000 ]
  distance:    0.0827624
  band:
  - # 1
    frequency:    2.3932326246
  - # 2
    frequency:    2.3932326246
  - # 3
    frequency:    2.3932326246
  - # 4
    frequency:    5.6492886095
  - # 5
    frequency:    5.6492886095
  - # 6
    frequency:    5.6492886095

- q-position: [    0.0000000,    0.2653061,    0.0000000 ]
  distance:    0.0860729
  band:
  - # 1
    frequency:    2.4834711409
  - # 2
    frequency:    2.4834711409
  - # 3
    frequency:    2.4834711409
  - # 4
    frequency:    5.6102045668
  - # 5
    frequency:    5.6102045668
  - # 6
    frequency:    5.6102045668

- q-position: [    0.0000000,    0.2755102,    0.0000000 ]
  distance:    0.0893834
  band:
  - # 1
    frequency:    2.5730716326
  - # 2
    frequency:    2.5730716326
  - # 3
    frequency:    2.5730716326
  - # 4
    frequency:    5.5696792154
  - # 5
    frequency:    5.5696792154
  - # 6
    frequency:    5.5696792154

- q-position: [    0.0000000,    0.2857143,    0.0000000 ]
  distance:    0.0926938
  band:
  - # 1
    frequency:    2.6620110805
  - # 2
    frequency:    2.6620110805
  - # 3
    frequency:    2.6620110805
  - # 4
    frequency:    5.5277229666
  - # 5
    frequency:    5.5277229666
  - # 6
    frequency:    5.5277229666

- q-position: [    0.0000000,    0.2959184,    0.0000000 ]
  distance:    0.0960043
  band:
  - # 1
    frequency:    2.7502666355
  - # 2
    frequency:    2.7502666355
  - # 3
    frequency:    2.7502666355
  - # 4
    frequency:    5.4843465994
  - # 5
    frequency:    5.4843465994
  - # 6
    frequency:    5.4843465994

- q-position: [    0.0000000,    0.3061224,    0.0000000 ]
  distance:    0.0993148
  band:
  - # 1
    frequency:    2.8378156238
  - # 2
    frequency:    2.8378156238
  - # 3
    frequency:    2.8378156238
  - # 4
    frequency:    5.4395612575
  - # 5
    frequency:    5.4395612575
  - # 6
    frequency:    5.4395612575

- q-position: [    0.0000000,    0.3163265,    0.0000000 ]
  distance:    0.1026253
  band:
  - # 1
    frequency:    2.9246355535
  - # 2
    frequency:    2.9246355535
  - # 3
    frequency:    2.9246355535
  - # 4
    frequency:    5.3933784466
  - # 5
    frequency:    5.3933784466
  - # 6
    frequency:    5.3933784466

- q-position: [    0.0000000,    0.3265306,    0.0000000 ]
  distance:    0.1059358
  band:
  - # 1
    frequency:    3.0107041197
  - # 2
    frequency:    3.0107041197
  - # 3
    frequency:    3.0107041197
  - # 4
    frequency:    5.3458100314
  - # 5
    frequency:    5.3458100314
  - # 6
    frequency:    5.3458100314

- q-position: [    0.0000000,    0.3367347,    0.0000000 ]
  distance:    0.1092463
  band:
  - # 1
    frequency:    3.0959992108
  - # 2
    frequency:    3.0959992108
  - # 3
    frequency:    3.0959992108
  - # 4
    frequency:    5.2968682328
  - # 5
    frequency:    5.2968682328
  - # 6
    frequency:    5.2968682328

- q-position: [    0.0000000,    0.3469388,    0.0000000 ]
  distance:    0.1125568
  band:
  - # 1
    frequency:    3.1804989136
  - # 2
    frequency:    3.1804989136
  - # 3
    frequency:    3.1804989136
  - # 4
    frequency:    5.2465656242
  - # 5
    frequency:    5.2465656242
  - # 6
    frequency:    5.2465656242

- q-position: [    0.0000000,    0.3571429,    0.0000000 ]
  distance:    0.1158673
  band:
  - # 1
    frequency:    3.2641815196
  - # 2
    frequency:    3.2641815196
  - # 3
    frequency:    3.2641815196
  - # 4
    frequency:    5.1949151288
  - # 5
    frequency:    5.1949151288
  - # 6
    frequency:    5.1949151288

- q-position: [    0.0000000,    0.3673469,    0.0000000 ]
  distance:    0.1191778
  band:
  - # 1
    frequency:    3.3470255299
  - # 2
    frequency:    3.3470255299
  - # 3
    frequency:    3.3470255299
  - # 4
    frequency:    5.1419300161
  - # 5
    frequency:    5.1419300161
  - # 6
    frequency:    5.1419300161

- q-position: [    0.0000000,    0.3775510,    0.0000000 ]
  distance:    0.1224883
  band:
  - # 1
    frequency:    3.4290096612
  - # 2
    frequency:    3.4290096612
  - # 3
    frequency:    3.4290096612
  - # 4
    frequency:    5.0876238984
  - # 5
    frequency:    5.0876238984
  - # 6
    frequency:    5.0876238984

- q-position: [    0.0000000,    0.3877551,    0.0000000 ]
  distance:    0.1257988
  band:
  - # 1
    frequency:    3.5101128512
  - # 2
    frequency:    3.5101128512
  - # 3
    frequency:    3.5101128512
  - # 4
    frequency:    5.0320107274
  - # 5
    frequency:    5.0320107274
  - # 6
    frequency:    5.0320107274

- q-position: [    0.0000000,    0.3979592,    0.0000000 ]
  distance:    0.1291093
  band:
  - # 1
    frequency:    3.5903142637
  - # 2
    frequency:    3.5903142637
  - # 3
    frequency:    3.5903142637
  - # 4
    frequency:    4.9751047905
  - # 5
    frequency:    4.9751047905
  - # 6
    frequency:    4.9751047905

- q-position: [    0.0000000,    0.4081633,    0.0000000 ]
  distance:    0.1324198
  band:
  - # 1
    frequency:    3.6695932942
  - # 2
    frequency:    3.6695932942
  - # 3
    frequency:    3.6695932942
  - # 4
    frequency:    4.9169207075
  - # 5
    frequency:    4.9169207075
  - # 6
    frequency:    4.9169207075

- q-position: [    0.0000000,    0.4183673,    0.0000000 ]
  distance:    0.1357303
  band:
  - # 1
    frequency:    3.7479295755
  - # 2
    frequency:    3.7479295755
  - # 3
    frequency:    3.7479295755
  - # 4
    frequency:    4.8574734262
  - # 5
    frequency:    4.8574734262
  - # 6
    frequency:    4.8574734262

- q-position: [    0.0000000,    0.4285714,    0.0000000 ]
  distance:    0.1390408
  band:
  - # 1
    frequency:    3.8253029821
  - # 2
    frequency:    3.8253029821
  - # 3
    frequency:    3.8253029821
  - # 4
    frequency:    4.7967782191
  - # 5
    frequency:    4.7967782191
  - # 6
    frequency:    4.7967782191

- q-position: [    0.0000000,    0.4387755,    0.0000000 ]
  distance:    0.1423513
  band:
  - # 1
    frequency:    3.9016936363
  - # 2
    frequency:    3.9016936363
  - # 3
    frequency:    3.9016936363
  - # 4
    frequency:    4.7348506795
  - # 5
    frequency:    4.7348506795
  - # 6
    frequency:    4.7348506795

- q-position: [    0.0000000,    0.4489796,    0.0000000 ]
  distance:    0.1456618
  band:
  - # 1
    frequency:    3.9770819126
  - # 2
    frequency:    3.9770819126
  - # 3
    frequency:    3.9770819126
  - # 4
    frequency:    4.6717067169
  - # 5
    frequency:    4.6717067169
  - # 6
    frequency:    4.6717067169

- q-position: [    0.0000000,    0.4591837,    0.0000000 ]
  distance:    0.1489723
  band:
  - # 1
    frequency:    4.0514484432
  - # 2
    frequency:    4.0514484432
  - # 3
    frequency:    4.0514484432
  - # 4
    frequency:    4.6073625537
  - # 5
    frequency:    4.6073625537
  - # 6
    frequency:    4.6073625537

- q-position: [    0.0000000,    0.4693878,    0.0000000 ]
  distance:    0.1522827
  band:
  - # 1
    frequency:    4.1247741226
  - # 2
    frequency:    4.1247741226
  - # 3
    frequency:    4.1247741226
  - # 4
    frequency:    4.5418347203
  - # 5
    frequency:    4.5418347203
  - # 6
    frequency:    4.5418347203

- q-position: [    0.0000000,    0.4795918,    0.0000000 ]
  distance:    0.1555932
  band:
  - # 1
    frequency:    4.1970401129
  - # 2
    frequency:    4.1970401129
  - # 3
    frequency:    4.1970401129
  - # 4
    frequency:    4.4751400514
  - # 5
    frequency:    4.4751400514
  - # 6
    frequency:    4.4751400514

- q-position: [    0.0000000,    0.4897959,    0.0000000 ]
  distance:    0.1589037
  band:
  - # 1
    frequency:    4.2682278483
  - # 2
    frequency:    4.2682278483
  - # 3
    frequency:    4.2682278483
  - # 4
    frequency:    4.4072956814
  - # 5
    frequency:    4.4072956814
  - # 6
    frequency:    4.4072956814

- q-position: [    0.0000000,    0.5000000,    0.0000000 ]
  distance:    0.1622142
  band:
  - # 1
    frequency:    4.3383190402
  - # 2
    frequency:    4.3383190402
  - # 3
    frequency:    4.3383190402
  - # 4
    frequency:    4.3383190402
  - # 5
    frequency:    4.3383190402
  - # 6
    frequency:    4.3383190402

- q-position: [    0.0000000,    0.5000000,    0.0000000 ]
  distance:    0.1622142
  band:
  - # 1
    frequency:    4.3383190402
  - # 2
    frequency:    4.3383190402
  - # 3
    frequency:    4.3383190402
  - # 4
    frequency:    4.3383190402
  - # 5
    frequency:    4.3383190402
  - # 6
    frequency:    4.3383190402

- q-position: [    0.0102041,    0.5000000,    0.0000000 ]
  distance:    0.1655247
  band:
  - # 1
    frequency:    4.3383190402
  - # 2
    frequency:    4.3383190402
  - # 3
    frequency:    4.3383190402
  - # 4
    frequency:    4.3383190402
  - # 5
    frequency:    4.3383190402
  - # 6
    frequency:    4.3383190402

- q-position: [    0.0204082,    0.5000000,    0.0000000 ]
  distance:    0.1688352
  band:
  - # 1
    frequency:    4.3383190402
  - # 2
    frequency:    4.3383190402
  - # 3
    frequency:    4.3383190402
  - # 4
    frequency:    4.3383190402
  - # 5
    frequency:    4.3383190402
  - # 6
    frequency:    4.3383190402

- q-position: [    0.0306122,    0.5000000,    0.0000000 ]
  distance:    0.1721457
  band:
  - # 1
    frequency:    4.3383190402
  - # 2
    frequency:    4.3383190402
  - # 3
    frequency:    4.3383190402
  - # 4
    frequency:    4.3383190402
  - # 5
    frequency:    4.3383190402
  - # 6
    frequency:    4.3383190402

- q-position: [    0.0408163,    0.5000000,    0.0000000 ]
  distance:    0.1754562
  band:
  - # 1
    frequency:    4.3383190402
  - # 2
    frequency:    4.3383190402
  - # 3
    frequency:    4.3383190402
  - # 4
    frequency:    4.3383190402
  - # 5
    frequency:    4.3383190402
  - # 6
    frequency:    4.3383190402

- q-position: [    0.0510204,    0.5000000,    0.0000000 ]
  distance:    0.1787667
  band:
  - # 1
    frequency:    4.3383190402
  - # 2
    frequency:    4.3383190402
  - # 3
    frequency:    4.3383190402
  - # 4
    frequency:    4.3383190402
  - # 5
    frequency:    4.3383190402
  - # 6
    frequency:    4.3383190402

- q-position: [    0.0612245,    0.5000000,    0.0000000 ]
  distance:    0.1820772
  band:
  - # 1
    frequency:    4.3383190402
  - # 2
    frequency:    4.3383190402
  - # 3
    frequency:    4.3383190402
  - # 4
    frequency:    4.3383190402
  - # 5
    frequency:    4.3383190402
  - # 6
    frequency:    4.3383190402

- q-position: [    0.0714286,    0.5000000,    0.0000000 ]
  distance:    0.1853877
  band:
  - # 1
    frequency:    4.3383190402
  - # 2
    frequency:    4.3383190402
  - # 3
    frequency:    4.3383190402
  - # 4
    frequency:    4.3383190402
  - # 5
    frequency:    4.3383190402
  - # 6
    frequency:    4.3383190402

- q-position: [    0.0816327,    0.5000000,    0.0000000 ]
  distance:    0.1886982
  band:
  - # 1
    frequency:    4.3383190402
  - # 2
    frequency:    4.3383190402
  - # 3
    frequency:    4.3383190402
  - # 4
    frequency:    4.3383190402
  - # 5
    frequency:    4.3383190402
  - # 6
    frequency:    4.3383190402

- q-position: [    0.0918367,    0.5000000,    0.0000000 ]
  distance:    0.1920087
  band:
  - # 1
    frequency:    4.3383190402
  - # 2
    frequency:    4.3383190402
  - # 3
    frequency:    4.3383190402
  - # 4
    frequency:    4.3383190402
  - # 5
    frequency:    4.3383190402
  - # 6
    frequency:    4.3383190402

- q-position: [    0.1020408,    0.5000000,    0.0000000 ]
  distance:    0.1953192
  band:
  - # 1
    frequency:    4.3383190402
  - # 2
    frequency:    4.3383190402
  - # 3
    frequency:    4.3383190402
  - # 4
    frequency:    4.3383190402
  - # 5
    frequency:    4.3383190402
  - # 6
    frequency:    4.3383190402

- q-position: [    0.1122449,    0.5000000,    0.0000000 ]
  distance:    0.1986297
  band:
  - # 1
    frequency:    4.3383190402
  - # 2
    frequency:    4.3383190402
  - # 3
    frequency:    4.3383190402
  - # 4
    frequency:    4.3383190402
  - # 5
    frequency:    4.3383190402
  - # 6
    frequency:    4.3383190402

- q-position: [    0.1224490,    0.5000000,    0.0000000 ]
  distance:    0.2019402
  band:
  - # 1
    frequency:    4.3383190402
  - # 2
    frequency:    4.3383190402
  - # 3
    frequency:    4.3383190402
  - # 4
    frequency:    4.3383190402
  - # 5
    frequency:    4.3383190402
  - # 6
    frequency:    4.3383190402

- q-position: [    0.1326531,    0.5000000,    0.0000000 ]
  distance:    0.2052507
  band:
  - # 1
    frequency:    4.3383190402
  - # 2
    frequency:    4.3383190402
  - # 3
    frequency:    4.3383190402
  - # 4
    frequency:    4.3383190402
  - # 5
    frequency:    4.3383190402
  - # 6
    frequency:    4.3383190402

- q-position: [    0.1428571,    0.5000000,    0.0000000 ]
  distance:    0.2085612
  band:
  - # 1
    frequency:    4.3383190402
  - # 2
    frequency:    4.3383190402
  - # 3
    frequency:    4.3383190402
  - # 4
    frequency:    4.3383190402
  - # 5
    frequency:    4.3383190402
  - # 6
    frequency:    4.3383190402

- q-position: [    0.1530612,    0.5000000,    0.0000000 ]
  distance:    0.2118716
  band:
  - # 1
    frequency:    4.3383190402
  - # 2
    frequency:    4.3383190402
  - # 3
    frequency:    4.3383190402
  - # 4
    frequency:    4.3383190402
  - # 5
    frequency:    4.3383190402
  - # 6
    frequency:    4.3383190402

- q-position: [    0.1632653,    0.5000000,    0.0000000 ]
  distance:    0.2151821
  band:
  - # 1
    frequency:    4.3383190402
  - # 2
    frequency:    4.3383190402
  - # 3
    frequency:    4.3383190402
  - # 4
    frequency:    4.3383190402
  - # 5
    frequency:    4.3383190402
  - # 6
    frequency:    4.3383190402

- q-position: [    0.1734694,    0.5000000,    0.0000000 ]
  distance:    0.2184926
  band:
  - # 1
    frequency:    4.3383190402
  - # 2
    frequency:    4.3383190402
  - # 3
    frequency:    4.3383190402
  - # 4
    frequency:    4.3383190402
  - # 5
    frequency:    4.3383190402
  - # 6
    frequency:    4.3383190402

- q-position: [    0.1836735,    0.5000000,    0.0000000 ]
  distance:    0.2218031
  band:
  - # 1
    frequency:    4.3383190402
  - # 2
    frequency:    4.3383190402
  - # 3
    frequency:    4.3383190402
  - # 4
    frequency:    4.3383190402
  - # 5
    frequency:    4.3383190402
  - # 6
    frequency:    4.3383190402

- q-position: [    0.1938776,    0.5000000,    0.0000000 ]
  distance:    0.2251136
  band:
  - # 1
    frequency:    4.3383190402
  - # 2
    frequency:    4.3383190402
  - # 3
    frequency:    4.3383190402
  - # 4
    frequency:    4.3383190402
  - # 5
    frequency:    4.3383190402
  - # 6
    frequency:    4.3383190402

- q-position: [    0.2040816,    0.5000000,    0.0000000 ]
  distance:    0.2284241
  band:
  - # 1
    frequency:    4.3383190402
  - # 2
    frequency:    4.3383190402
  - # 3
    frequency:    4.3383190402
  - # 4
    frequency:    4.3383190402
  - # 5
    frequency:    4.3383190402
  - # 6
    frequency:    4.3383190402

- q-position: [    0.2142857,    0.5000000,    0.0000000 ]
  distance:    0.2317346
  band:
  - # 1
    frequency:    4.3383190402
  - # 2
    frequency:    4.3383190402
  - # 3
    frequency:    4.3383190402
  - # 4
    frequency:    4.3383190402
  - # 5
    frequency:    4.3383190402
  - # 6
    frequency:    4.3383190402

- q-position: [    0.2244898,    0.5000000,    0.0000000 ]
  distance:    0.2350451
  band:
  - # 1
    frequency:    4.3383190402
  - # 2
    frequency:    4.3383190402
  - # 3
    frequency:    4.3383190402
  - # 4
    frequency:    4.3383190402
  - # 5
    frequency:    4.3383190402
  - # 6
    frequency:    4.3383190402

- q-position: [    0.2346939,    0.5000000,    0.0000000 ]
  distance:    0.2383556
  band:
  - # 1
    frequency:    4.3383190402
  - # 2
    frequency:    4.3383190402
  - # 3
    frequency:    4.3383190402
  - # 4
    frequency:    4.3383190402
  - # 5
    frequency:    4.3383190402
  - # 6
    frequency:    4.3383190402

- q-position: [    0.2448980,    0.5000000,    0.0000000 ]
  distance:    0.2416661
  band:
  - # 1
    frequency:    4.3383190402
  - # 2
    frequency:    4.3383190402
  - # 3
    frequency:    4.3383190402
  - # 4
    frequency:    4.3383190402
  - # 5
    frequency:    4.3383190402
  - # 6
    frequency:    4.3383190402

- q-position: [    0.2551020,    0.5000000,    0.0000000 ]
  distance:    0.2449766
  band:
  - # 1
    frequency:    4.3383190402
  - # 2
    frequency:    4.3383190402
  - # 3
    frequency:    4.3383190402
  - # 4
    frequency:    4.3383190402
  - # 5
    frequency:    4.3383190402
  - # 6
    frequency:    4.3383190402

- q-position: [    0.2653061,    0.5000000,    0.0000000 ]
  distance:    0.2482871
  band:
  - # 1
    frequency:    4.3383190402
  - # 2
    frequency:    4.3383190402
  - # 3
    frequency:    4.3383190402
  - # 4
    frequency:    4.3383190402
  - # 5
    frequency:    4.3383190402
  - # 6
    frequency:    4.3383190402

- q-position: [    0.2755102,    0.5000000,    0.0000000 ]
  distance:    0.2515976
  band:
  - # 1
    frequency:    4.3383190402
  - # 2
    frequency:    4.3383190402
  - # 3
    frequency:    4.3383190402
  - # 4
    frequency:    4.3383190402
  - # 5
    frequency:    4.3383190402
  - # 6
    frequency:    4.3383190402

- q-position: [    0.2857143,    0.5000000,    0.0000000 ]
  distance:    0.2549081
  band:
  - # 1
    frequency:    4.3383190402
  - # 2
    frequency:    4.3383190402
  - # 3
    frequency:    4.3383190402
  - # 4
    frequency:    4.3383190402
  - # 5
    frequency:    4.3383190402
  - # 6
    frequency:    4.3383190402

- q-position: [    0.2959184,    0.5000000,    0.0000000 ]
  distance:    0.2582186
  band:
  - # 1
    frequency:    4.3383190402
  - # 2
    frequency:    4.3383190402
  - # 3
    frequency:    4.3383190402
  - # 4
    frequency:    4.3383190402
  - # 5
    frequency:    4.3383190402
  - # 6
    frequency:    4.3383190402

- q-position: [    0.3061224,    0.5000000,    0.0000000 ]
  distance:    0.2615291
  band:
  - # 1
    frequency:    4.3383190402
  - # 2
    frequency:    4.3383190402
  - # 3
    frequency:    4.3383190402
  - # 4
    frequency:    4.3383190402
  - # 5
    frequency:    4.3383190402
  - # 6
    frequency:    4.3383190402

- q-position: [    0.3163265,    0.5000000,    0.0000000 ]
  distance:    0.2648396
  band:
  - # 1
    frequency:    4.3383190402
  - # 2
    frequency:    4.3383190402
  - # 3
    frequency:    4.3383190402
  - # 4
    frequency:    4.3383190402
  - # 5
    frequency:    4.3383190402
  - # 6
    frequency:    4.3383190402

- q-position: [    0.3265306,    0.5000000,    0.0000000 ]
  distance:    0.2681501
  band:
  - # 1
    frequency:    4.3383190402
  - # 2
    frequency:    4.3383190402
  - # 3
    frequency:    4.3383190402
  - # 4
    frequency:    4.3383190402
  - # 5
    frequency:    4.3383190402
  - # 6
    frequency:    4.3383190402

- q-position: [    0.3367347,    0.5000000,    0.0000000 ]
  distance:    0.2714605
  band:
  - # 1
    frequency:    4.3383190402
  - # 2
    frequency:    4.3383190402
  - # 3
    frequency:    4.3383190402
  - # 4
    frequency:    4.3383190402
  - # 5
    frequency:    4.3383190402
  - # 6
    frequency:    4.3383190402

- q-position: [    0.3469388,    0.5000000,    0.0000000 ]
  distance:    0.2747710
  band:
  - # 1
    frequency:    4.3383190402
  - # 2
    frequency:    4.3383190402
  - # 3
    frequency:    4.3383190402
  - # 4
    frequency:    4.3383190402
  - # 5
    frequency:    4.3383190402
  - # 6
    frequency:    4.3383190402

- q-position: [    0.3571429,    0.5000000,    0.0000000 ]
  distance:    0.2780815
  band:
  - # 1
    frequency:    4.3383190402
  - # 2
    frequency:    4.3383190402
  - # 3
    frequency:    4.3383190402
  - # 4
    frequency:    4.3383190402
  - # 5
    frequency:    4.3383190402
  - # 6
    frequency:    4.3383190402

- q-position: [    0.3673469,    0.5000000,    0.0000000 ]
  distance:    0.2813920
  band:
  - # 1
    frequency:    4.3383190402
  - # 2
    frequency:    4.3383190402
  - # 3
    frequency:    4.3383190402
  - # 4
    frequency:    4.3383190402
  - # 5
    frequency:    4.3383190402
  - # 6
    frequency:    4.3383190402

- q-position: [    0.3775510,    0.5000000,    0.0000000 ]
  distance:    0.2847025
  band:
  - # 1
    frequency:    4.3383190402
  - # 2
    frequency:    4.3383190402
  - # 3
    frequency:    4.3383190402
  - # 4
    frequency:    4.3383190402
  - # 5
    frequency:    4.3383190402
  - # 6
    frequency:    4.3383190402

- q-position: [    0.3877551,    0.5000000,    0.0000000 ]
  distance:    0.2880130
  band:
  - # 1
    frequency:    4.3383190402
  - # 2
    frequency:    4.3383190402
  - # 3
    frequency:    4.3383190402
  - # 4
    frequency:    4.3383190402
  - # 5
    frequency:    4.3383190402
  - # 6
    frequency:    4.3383190402
