2    
1    

1    
  0.0100000000000000   0.0000000000000000   0.0000000000000000
  -0.0738901231    0.0001905775    0.0000993290
   0.0738901231   -0.0001905775   -0.0000993290
