   2    2
1 1
     7.389012307025371     0.000000000000000    -0.000000000000000
     0.000000000000000     7.389012307025369    -0.000000000000000
    -0.000000000000000     0.000000000000000     7.389012307025369
1 2
    -7.389012307025371    -0.000000000000000     0.000000000000000
    -0.000000000000000    -7.389012307025369     0.000000000000000
     0.000000000000000    -0.000000000000000    -7.389012307025369
2 1
    -7.389012307025370    -0.000000000000000     0.000000000000000
    -0.000000000000000    -7.389012307025367     0.000000000000000
     0.000000000000000    -0.000000000000000    -7.389012307025367
2 2
     7.389012307025370     0.000000000000000    -0.000000000000000
     0.000000000000000     7.389012307025367    -0.000000000000000
    -0.000000000000000     0.000000000000000     7.389012307025367