phonopy:
  version: 2.8.1
  frequency_unit_conversion_factor: 15.633304
  symmetry_tolerance: 1.00000e-05

physical_unit:
  atomic_mass: "AMU"

space_group:
  type: "Im-3m"
  number: 229
  Hall_symbol: "-I 4 2 3"

supercell_matrix:
- [   1,   0,   0 ]
- [   0,   1,   0 ]
- [   0,   0,   1 ]

primitive_cell:
  lattice:
  - [     3.082343660000000,     0.000000000000000,     0.000000000000000 ] # a
  - [     0.000000000000000,     3.082343660000000,     0.000000000000000 ] # b
  - [     0.000000000000000,     0.000000000000000,     3.082343660000000 ] # c
  points:
  - symbol: Mo # 1
    coordinates: [  0.000000000000000,  0.000000000000000,  0.000000000000000 ]
    mass: 95.950000
  - symbol: Mo # 2
    coordinates: [  0.500000000000000,  0.500000000000000,  0.500000000000000 ]
    mass: 95.950000
  reciprocal_lattice: # without 2pi
  - [     0.324428457792406,     0.000000000000000,     0.000000000000000 ] # a*
  - [     0.000000000000000,     0.324428457792406,     0.000000000000000 ] # b*
  - [     0.000000000000000,     0.000000000000000,     0.324428457792406 ] # c*

unit_cell:
  lattice:
  - [     3.082343660000000,    -0.000000000000000,    -0.000000000000000 ] # a
  - [     0.000000000000000,     3.082343660000000,    -0.000000000000000 ] # b
  - [    -0.000000000000000,     0.000000000000000,     3.082343660000000 ] # c
  points:
  - symbol: Mo # 1
    coordinates: [  0.000000000000000,  0.000000000000000,  0.000000000000000 ]
    mass: 95.950000
    reduced_to: 1
  - symbol: Mo # 2
    coordinates: [  0.500000000000000,  0.500000000000000,  0.500000000000000 ]
    mass: 95.950000
    reduced_to: 2

supercell:
  lattice:
  - [     3.082343660000000,     0.000000000000000,     0.000000000000000 ] # a
  - [     0.000000000000000,     3.082343660000000,     0.000000000000000 ] # b
  - [     0.000000000000000,     0.000000000000000,     3.082343660000000 ] # c
  points:
  - symbol: Mo # 1
    coordinates: [  0.000000000000000,  0.000000000000000,  0.000000000000000 ]
    mass: 95.950000
    reduced_to: 1
  - symbol: Mo # 2
    coordinates: [  0.500000000000000,  0.500000000000000,  0.500000000000000 ]
    mass: 95.950000
    reduced_to: 2

displacements:
- atom:    1
  displacement:
    [   0.0100000000000000,  0.0000000000000000,  0.0000000000000000 ]
  forces:
  - [  -0.0738901230702537,  0.0001905775297894,  0.0000993290459545 ]
  - [   0.0738901230702537, -0.0001905775297894, -0.0000993290459545 ]
