# Thermal properties / unit cell (natom)

unit:
  temperature:   K
  free_energy:   kJ/mol
  entropy:       J/K/mol
  heat_capacity: J/K/mol

natom: 2    
cutoff_frequency:    0.000
num_modes: 546750
num_integrated_modes: 546748

zero_point_energy:       5.0946826
high_T_entropy:        202.8020070

thermal_properties:
- temperature:         0.0000000
  free_energy:         5.0946826
  entropy:             0.0000000
  heat_capacity:       0.0000000
  energy:              5.0946826

- temperature:        10.0000000
  free_energy:         5.0946019
  entropy:             0.0292222
  heat_capacity:       0.0866208
  energy:              5.0948942

- temperature:        20.0000000
  free_energy:         5.0934468
  entropy:             0.2604769
  heat_capacity:       0.8918079
  energy:              5.0986563

- temperature:        30.0000000
  free_energy:         5.0873744
  entropy:             1.0980930
  heat_capacity:       3.9064000
  energy:              5.1203172

- temperature:        40.0000000
  free_energy:         5.0681575
  entropy:             2.9146889
  heat_capacity:       9.2456507
  energy:              5.1847451

- temperature:        50.0000000
  free_energy:         5.0260535
  entropy:             5.6323659
  heat_capacity:      15.3409842
  energy:              5.3076718

- temperature:        60.0000000
  free_energy:         4.9535415
  entropy:             8.9421526
  heat_capacity:      21.0146203
  energy:              5.4900706

- temperature:        70.0000000
  free_energy:         4.8462102
  entropy:            12.5551995
  heat_capacity:      25.8340338
  energy:              5.7250742

- temperature:        80.0000000
  free_energy:         4.7021033
  entropy:            16.2711360
  heat_capacity:      29.7705571
  energy:              6.0037942

- temperature:        90.0000000
  free_energy:         4.5208588
  entropy:            19.9674461
  heat_capacity:      32.9408023
  energy:              6.3179289

- temperature:       100.0000000
  free_energy:         4.3030543
  entropy:            23.5748512
  heat_capacity:      35.4892396
  energy:              6.6605394

- temperature:       110.0000000
  free_energy:         4.0497805
  entropy:            27.0572610
  heat_capacity:      37.5464957
  energy:              7.0260792

- temperature:       120.0000000
  free_energy:         3.7623812
  entropy:            30.3984047
  heat_capacity:      39.2190999
  energy:              7.4101898

- temperature:       130.0000000
  free_energy:         3.4422999
  entropy:            33.5935317
  heat_capacity:      40.5903866
  energy:              7.8094590

- temperature:       140.0000000
  free_energy:         3.0909918
  entropy:            36.6444055
  heat_capacity:      41.7244947
  energy:              8.2212086

- temperature:       150.0000000
  free_energy:         2.7098751
  entropy:            39.5563219
  heat_capacity:      42.6705854
  energy:              8.6433234

- temperature:       160.0000000
  free_energy:         2.3003051
  entropy:            42.3363455
  heat_capacity:      43.4664185
  energy:              9.0741204

- temperature:       170.0000000
  free_energy:         1.8635619
  entropy:            44.9922762
  heat_capacity:      44.1411521
  energy:              9.5122488

- temperature:       180.0000000
  free_energy:         1.4008467
  entropy:            47.5320508
  heat_capacity:      44.7174609
  energy:              9.9566159

- temperature:       190.0000000
  free_energy:         0.9132822
  entropy:            49.9634074
  heat_capacity:      45.2131163
  energy:             10.4063296

- temperature:       200.0000000
  free_energy:         0.4019154
  entropy:            52.2937054
  heat_capacity:      45.6421602
  energy:             10.8606565

- temperature:       210.0000000
  free_energy:        -0.1322781
  entropy:            54.5298399
  heat_capacity:      46.0157784
  energy:             11.3189883

- temperature:       220.0000000
  free_energy:        -0.6883889
  entropy:            56.6782106
  heat_capacity:      46.3429517
  energy:             11.7808174

- temperature:       230.0000000
  free_energy:        -1.2655695
  entropy:            58.7447234
  heat_capacity:      46.6309469
  energy:             12.2457169

- temperature:       240.0000000
  free_energy:        -1.8630287
  entropy:            60.7348096
  heat_capacity:      46.8856864
  energy:             12.7133256

- temperature:       250.0000000
  free_energy:        -2.4800276
  entropy:            62.6534546
  heat_capacity:      47.1120312
  energy:             13.1833361

- temperature:       260.0000000
  free_energy:        -3.1158749
  entropy:            64.5052307
  heat_capacity:      47.3139978
  energy:             13.6554850

- temperature:       270.0000000
  free_energy:        -3.7699233
  entropy:            66.2943306
  heat_capacity:      47.4949255
  energy:             14.1295459

- temperature:       280.0000000
  free_energy:        -4.4415655
  entropy:            68.0246009
  heat_capacity:      47.6576072
  energy:             14.6053228

- temperature:       290.0000000
  free_energy:        -5.1302310
  entropy:            69.6995730
  heat_capacity:      47.8043925
  energy:             15.0826451

- temperature:       300.0000000
  free_energy:        -5.8353835
  entropy:            71.3224925
  heat_capacity:      47.9372681
  energy:             15.5613643

- temperature:       310.0000000
  free_energy:        -6.5565174
  entropy:            72.8963457
  heat_capacity:      48.0579226
  energy:             16.0413498

- temperature:       320.0000000
  free_energy:        -7.2931560
  entropy:            74.4238839
  heat_capacity:      48.1677980
  energy:             16.5224868

- temperature:       330.0000000
  free_energy:        -8.0448491
  entropy:            75.9076458
  heat_capacity:      48.2681316
  energy:             17.0046740

- temperature:       340.0000000
  free_energy:        -8.8111708
  entropy:            77.3499767
  heat_capacity:      48.3599893
  energy:             17.4878212

- temperature:       350.0000000
  free_energy:        -9.5917178
  entropy:            78.7530469
  heat_capacity:      48.4442933
  energy:             17.9718486

- temperature:       360.0000000
  free_energy:       -10.3861076
  entropy:            80.1188673
  heat_capacity:      48.5218445
  energy:             18.4566846

- temperature:       370.0000000
  free_energy:       -11.1939772
  entropy:            81.4493042
  heat_capacity:      48.5933410
  energy:             18.9422653

- temperature:       380.0000000
  free_energy:       -12.0149816
  entropy:            82.7460917
  heat_capacity:      48.6593936
  energy:             19.4285333

- temperature:       390.0000000
  free_energy:       -12.8487923
  entropy:            84.0108439
  heat_capacity:      48.7205384
  energy:             19.9154368

- temperature:       400.0000000
  free_energy:       -13.6950967
  entropy:            85.2450649
  heat_capacity:      48.7772473
  energy:             20.4029293

- temperature:       410.0000000
  free_energy:       -14.5535965
  entropy:            86.4501583
  heat_capacity:      48.8299372
  energy:             20.8909684

- temperature:       420.0000000
  free_energy:       -15.4240071
  entropy:            87.6274357
  heat_capacity:      48.8789773
  energy:             21.3795159

- temperature:       430.0000000
  free_energy:       -16.3060566
  entropy:            88.7781244
  heat_capacity:      48.9246958
  energy:             21.8685369

- temperature:       440.0000000
  free_energy:       -17.1994848
  entropy:            89.9033739
  heat_capacity:      48.9673846
  energy:             22.3579997

- temperature:       450.0000000
  free_energy:       -18.1040429
  entropy:            91.0042627
  heat_capacity:      49.0073046
  energy:             22.8478753

- temperature:       460.0000000
  free_energy:       -19.0194923
  entropy:            92.0818035
  heat_capacity:      49.0446894
  energy:             23.3381373

- temperature:       470.0000000
  free_energy:       -19.9456043
  entropy:            93.1369483
  heat_capacity:      49.0797482
  energy:             23.8287614

- temperature:       480.0000000
  free_energy:       -20.8821596
  entropy:            94.1705932
  heat_capacity:      49.1126695
  energy:             24.3197252

- temperature:       490.0000000
  free_energy:       -21.8289473
  entropy:            95.1835827
  heat_capacity:      49.1436231
  energy:             24.8110082

- temperature:       500.0000000
  free_energy:       -22.7857650
  entropy:            96.1767132
  heat_capacity:      49.1727620
  energy:             25.3025916

- temperature:       510.0000000
  free_energy:       -23.7524179
  entropy:            97.1507368
  heat_capacity:      49.2002251
  energy:             25.7944579

- temperature:       520.0000000
  free_energy:       -24.7287185
  entropy:            98.1063642
  heat_capacity:      49.2261380
  energy:             26.2865909

- temperature:       530.0000000
  free_energy:       -25.7144861
  entropy:            99.0442678
  heat_capacity:      49.2506150
  energy:             26.7789758

- temperature:       540.0000000
  free_energy:       -26.7095469
  entropy:            99.9650845
  heat_capacity:      49.2737598
  energy:             27.2715988

- temperature:       550.0000000
  free_energy:       -27.7137329
  entropy:           100.8694178
  heat_capacity:      49.2956672
  energy:             27.7644469

- temperature:       560.0000000
  free_energy:       -28.7268822
  entropy:           101.7578401
  heat_capacity:      49.3164236
  energy:             28.2575083

- temperature:       570.0000000
  free_energy:       -29.7488385
  entropy:           102.6308952
  heat_capacity:      49.3361081
  energy:             28.7507718

- temperature:       580.0000000
  free_energy:       -30.7794506
  entropy:           103.4890995
  heat_capacity:      49.3547930
  energy:             29.2442271

- temperature:       590.0000000
  free_energy:       -31.8185726
  entropy:           104.3329443
  heat_capacity:      49.3725447
  energy:             29.7378645

- temperature:       600.0000000
  free_energy:       -32.8660632
  entropy:           105.1628971
  heat_capacity:      49.3894243
  energy:             30.2316751

- temperature:       610.0000000
  free_energy:       -33.9217857
  entropy:           105.9794033
  heat_capacity:      49.4054878
  energy:             30.7256503

- temperature:       620.0000000
  free_energy:       -34.9856078
  entropy:           106.7828873
  heat_capacity:      49.4207868
  energy:             31.2197823

- temperature:       630.0000000
  free_energy:       -36.0574014
  entropy:           107.5737541
  heat_capacity:      49.4353691
  energy:             31.7140637

- temperature:       640.0000000
  free_energy:       -37.1370422
  entropy:           108.3523900
  heat_capacity:      49.4492785
  energy:             32.2084874

- temperature:       650.0000000
  free_energy:       -38.2244097
  entropy:           109.1191643
  heat_capacity:      49.4625559
  energy:             32.7030471

- temperature:       660.0000000
  free_energy:       -39.3193871
  entropy:           109.8744298
  heat_capacity:      49.4752389
  energy:             33.1977366

- temperature:       670.0000000
  free_energy:       -40.4218610
  entropy:           110.6185240
  heat_capacity:      49.4873623
  energy:             33.6925500

- temperature:       680.0000000
  free_energy:       -41.5317214
  entropy:           111.3517698
  heat_capacity:      49.4989585
  energy:             34.1874821

- temperature:       690.0000000
  free_energy:       -42.6488613
  entropy:           112.0744766
  heat_capacity:      49.5100576
  energy:             34.6825276

- temperature:       700.0000000
  free_energy:       -43.7731768
  entropy:           112.7869406
  heat_capacity:      49.5206877
  energy:             35.1776817

- temperature:       710.0000000
  free_energy:       -44.9045669
  entropy:           113.4894461
  heat_capacity:      49.5308746
  energy:             35.6729398

- temperature:       720.0000000
  free_energy:       -46.0429334
  entropy:           114.1822655
  heat_capacity:      49.5406427
  energy:             36.1682978

- temperature:       730.0000000
  free_energy:       -47.1881808
  entropy:           114.8656605
  heat_capacity:      49.5500145
  energy:             36.6637514

- temperature:       740.0000000
  free_energy:       -48.3402161
  entropy:           115.5398822
  heat_capacity:      49.5590112
  energy:             37.1592968

- temperature:       750.0000000
  free_energy:       -49.4989487
  entropy:           116.2051721
  heat_capacity:      49.5676526
  energy:             37.6549304

- temperature:       760.0000000
  free_energy:       -50.6642905
  entropy:           116.8617621
  heat_capacity:      49.5759570
  energy:             38.1506487

- temperature:       770.0000000
  free_energy:       -51.8361557
  entropy:           117.5098755
  heat_capacity:      49.5839417
  energy:             38.6464485

- temperature:       780.0000000
  free_energy:       -53.0144605
  entropy:           118.1497269
  heat_capacity:      49.5916230
  energy:             39.1423265

- temperature:       790.0000000
  free_energy:       -54.1991233
  entropy:           118.7815232
  heat_capacity:      49.5990159
  energy:             39.6382800

- temperature:       800.0000000
  free_energy:       -55.3900647
  entropy:           119.4054634
  heat_capacity:      49.6061347
  energy:             40.1343059

- temperature:       810.0000000
  free_energy:       -56.5872071
  entropy:           120.0217393
  heat_capacity:      49.6129928
  energy:             40.6304018

- temperature:       820.0000000
  free_energy:       -57.7904746
  entropy:           120.6305361
  heat_capacity:      49.6196027
  energy:             41.1265650

- temperature:       830.0000000
  free_energy:       -58.9997935
  entropy:           121.2320320
  heat_capacity:      49.6259763
  energy:             41.6227931

- temperature:       840.0000000
  free_energy:       -60.2150915
  entropy:           121.8263991
  heat_capacity:      49.6321246
  energy:             42.1190838

- temperature:       850.0000000
  free_energy:       -61.4362982
  entropy:           122.4138036
  heat_capacity:      49.6380583
  energy:             42.6154348

- temperature:       860.0000000
  free_energy:       -62.6633449
  entropy:           122.9944059
  heat_capacity:      49.6437870
  energy:             43.1118442

- temperature:       870.0000000
  free_energy:       -63.8961642
  entropy:           123.5683611
  heat_capacity:      49.6493202
  energy:             43.6083099

- temperature:       880.0000000
  free_energy:       -65.1346904
  entropy:           124.1358187
  heat_capacity:      49.6546666
  energy:             44.1048300

- temperature:       890.0000000
  free_energy:       -66.3788594
  entropy:           124.6969237
  heat_capacity:      49.6598346
  energy:             44.6014027

- temperature:       900.0000000
  free_energy:       -67.6286082
  entropy:           125.2518159
  heat_capacity:      49.6648319
  energy:             45.0980261

- temperature:       910.0000000
  free_energy:       -68.8838755
  entropy:           125.8006310
  heat_capacity:      49.6696660
  energy:             45.5946988

- temperature:       920.0000000
  free_energy:       -70.1446010
  entropy:           126.3434999
  heat_capacity:      49.6743440
  energy:             46.0914189

- temperature:       930.0000000
  free_energy:       -71.4107261
  entropy:           126.8805497
  heat_capacity:      49.6788724
  energy:             46.5881851

- temperature:       940.0000000
  free_energy:       -72.6821930
  entropy:           127.4119031
  heat_capacity:      49.6832577
  energy:             47.0849959

- temperature:       950.0000000
  free_energy:       -73.9589455
  entropy:           127.9376793
  heat_capacity:      49.6875056
  energy:             47.5818498

- temperature:       960.0000000
  free_energy:       -75.2409284
  entropy:           128.4579937
  heat_capacity:      49.6916220
  energy:             48.0787456

- temperature:       970.0000000
  free_energy:       -76.5280876
  entropy:           128.9729582
  heat_capacity:      49.6956122
  energy:             48.5756819

- temperature:       980.0000000
  free_energy:       -77.8203701
  entropy:           129.4826811
  heat_capacity:      49.6994812
  energy:             49.0726574

- temperature:       990.0000000
  free_energy:       -79.1177241
  entropy:           129.9872678
  heat_capacity:      49.7032340
  energy:             49.5696711

- temperature:      1000.0000000
  free_energy:       -80.4200987
  entropy:           130.4868204
  heat_capacity:      49.7068752
  energy:             50.0667217
