# Tetrahedron method
       -0.0000000749        0.0000000000
        0.0322103010        0.0000248788
        0.0644206769        0.0001057931
        0.0966310528        0.0002521600
        0.1288414287        0.0004733961
        0.1610518046        0.0007789183
        0.1932621805        0.0011781434
        0.2254725564        0.0019861214
        0.2576829323        0.0031511263
        0.2898933082        0.0040016045
        0.3221036841        0.0045840967
        0.3543140600        0.0054435665
        0.3865244359        0.0064869593
        0.4187348118        0.0076561425
        0.4509451878        0.0088770393
        0.4831555637        0.0100601287
        0.5153659396        0.0114353556
        0.5475763155        0.0129240790
        0.5797866914        0.0145118435
        0.6119970673        0.0161984783
        0.6442074432        0.0179453646
        0.6764178191        0.0197165069
        0.7086281950        0.0216795212
        0.7408385709        0.0237658828
        0.7730489468        0.0259701045
        0.8052593227        0.0282330940
        0.8374696986        0.0305487129
        0.8696800745        0.0329319908
        0.9018904504        0.0354936002
        0.9341008263        0.0382136598
        0.9663112022        0.0410473753
        0.9985215781        0.0439366110
        1.0307319540        0.0469073825
        1.0629423299        0.0499689662
        1.0951527058        0.0531428401
        1.1273630817        0.0565191888
        1.1595734576        0.0600360369
        1.1917838335        0.0636434389
        1.2239942094        0.0673451539
        1.2562045853        0.0711245023
        1.2884149612        0.0749737431
        1.3206253371        0.0790759288
        1.3528357130        0.0833730133
        1.3850460889        0.0877610478
        1.4172564648        0.0922556796
        1.4494668407        0.0968395730
        1.4816772167        0.1015127477
        1.5138875926        0.1064057881
        1.5460979685        0.1115406496
        1.5783083444        0.1168052622
        1.6105187203        0.1222132176
        1.6427290962        0.1277302873
        1.6749394721        0.1333420254
        1.7071498480        0.1391139238
        1.7393602239        0.1452116429
        1.7715705998        0.1515065170
        1.8037809757        0.1579631933
        1.8359913516        0.1645285909
        1.8682017275        0.1712327899
        1.9004121034        0.1780622507
        1.9326224793        0.1852845315
        1.9648328552        0.1927633804
        1.9970432311        0.2004257985
        2.0292536070        0.2082502865
        2.0614639829        0.2162483348
        2.0936743588        0.2243720303
        2.1258847347        0.2328788156
        2.1580951106        0.2417644119
        2.1903054865        0.2508922331
        2.2225158624        0.2602213473
        2.2547262383        0.2697367112
        2.2869366142        0.2794387141
        2.3191469901        0.2895316945
        2.3513573660        0.3001235409
        2.3835677419        0.3110218074
        2.4157781178        0.3221798007
        2.4479884937        0.3335791824
        2.4801988696        0.3452223791
        2.5124092456        0.3572715449
        2.5446196215        0.3700019304
        2.5768299974        0.3831102751
        2.6090403733        0.3965515742
        2.6412507492        0.4103092020
        2.6734611251        0.4243723718
        2.7056715010        0.4389763242
        2.7378818769        0.4544212810
        2.7700922528        0.4703503446
        2.8023026287        0.4867235113
        2.8345130046        0.5035146765
        2.8667233805        0.5207158234
        2.8989337564        0.5386965946
        2.9311441323        0.5577173259
        2.9633545082        0.5773740538
        2.9955648841        0.5976231485
        3.0277752600        0.6184425565
        3.0599856359        0.6398330506
        3.0921960118        0.6624979359
        3.1244063877        0.6863863152
        3.1566167636        0.7111450981
        3.1888271395        0.7367271306
        3.2210375154        0.7631316092
        3.2532478913        0.7903850741
        3.2854582672        0.8198633301
        3.3176686431        0.8507017700
        3.3498790190        0.8827812153
        3.3820893949        0.9161012505
        3.4142997708        0.9506640007
        3.4465101467        0.9872440086
        3.4787205226        1.0266824566
        3.5109308985        1.0680837851
        3.5431412745        1.1114274848
        3.5753516504        1.1567996532
        3.6075620263        1.2042518228
        3.6397724022        1.2565995747
        3.6719827781        1.3123189977
        3.7041931540        1.3713569100
        3.7364035299        1.4339275018
        3.7686139058        1.5001630014
        3.8008242817        1.5731764615
        3.8330346576        1.6532607771
        3.8652450335        1.7397720962
        3.8974554094        1.8333196920
        3.9296657853        1.9346525719
        3.9618761612        2.0481200941
        3.9940865371        2.1775060735
        4.0262969130        2.3223592026
        4.0585072889        2.4855142380
        4.0907176648        2.6707980217
        4.1229280407        2.8909861722
        4.1551384166        3.1623866382
        4.1873487925        3.4971230613
        4.2195591684        3.9258280363
        4.2517695443        4.5106029263
        4.2839799202        6.7356155999
        4.3161902961        7.4539505938
        4.3484006720        7.6752523618
        4.3806110479        7.1405257059
        4.4128214238        6.4071202747
        4.4450317997        4.2867494566
        4.4772421756        3.8239335898
        4.5094525515        3.4760074867
        4.5416629274        3.2026350966
        4.5738733034        2.9805046851
        4.6060836793        2.7892587152
        4.6382940552        2.6241001868
        4.6705044311        2.4803743395
        4.7027148070        2.3552306823
        4.7349251829        2.2394738294
        4.7671355588        2.1347671881
        4.7993459347        2.0400352264
        4.8315563106        1.9546650006
        4.8637666865        1.8732295711
        4.8959770624        1.7973402615
        4.9281874383        1.7273071904
        4.9603978142        1.6630790671
        4.9926081901        1.6001103134
        5.0248185660        1.5406463973
        5.0570289419        1.4852091536
        5.0892393178        1.4336038265
        5.1214496937        1.3815896122
        5.1536600696        1.3325568286
        5.1858704455        1.2866966042
        5.2180808214        1.2420891023
        5.2502911973        1.1977268382
        5.2825015732        1.1559525481
        5.3147119491        1.1167921661
        5.3469223250        1.0757432522
        5.3791327009        1.0369575187
        5.4113430768        1.0007880513
        5.4435534527        0.9629357231
        5.4757638286        0.9264645386
        5.5079742045        0.8923596471
        5.5401845804        0.8563803203
        5.5723949563        0.8215445299
        5.6046053323        0.7893188025
        5.6368157082        0.7534943258
        5.6690260841        0.7201815324
        5.7012364600        0.6869219544
        5.7334468359        0.6521287160
        5.7656572118        0.6203643146
        5.7978675877        0.5838912633
        5.8300779636        0.5508477326
        5.8622883395        0.5134354225
        5.8944987154        0.4793818252
        5.9267090913        0.4392097498
        5.9589194672        0.4011255545
        5.9911298431        0.3585807621
        6.0233402190        0.3111578203
        6.0555505949        0.2592927805
        6.0877609708        0.1970936938
        6.1199713467        0.1160991638
        6.1521817226        0.0000000000
        6.1843920985        0.0000000000
        6.2166024744        0.0000000000
        6.2488128503        0.0000000000
        6.2810232262        0.0000000000
        6.3132336021        0.0000000000
        6.3454439780        0.0000000000
        6.3776543539        0.0000000000
        6.4098647298        0.0000000000
        6.4420751057        0.0000000000
