   2    2
1 1
    15.856017038641099    -0.000010863504272     0.000010863504307
    -0.000010863503583    15.856017038641099     0.000010863503963
     0.000010863503549     0.000010863503895    15.856017038641095
1 2
   -15.856017038641099     0.000010863504272    -0.000010863504307
     0.000010863503583   -15.856017038641099    -0.000010863503963
    -0.000010863503549    -0.000010863503895   -15.856017038641095
2 1
   -15.856017038641099     0.000010863504272    -0.000010863504307
     0.000010863503583   -15.856017038641095    -0.000010863503963
    -0.000010863503549    -0.000010863503895   -15.856017038641095
2 2
    15.856017038641099    -0.000010863504272     0.000010863504307
    -0.000010863503583    15.856017038641095     0.000010863503963
     0.000010863503549     0.000010863503895    15.856017038641095