2    
2    

1    
  0.0100000000000000   0.0000000000000000   0.0000000000000000
  -0.1584003757    0.0001275260   -0.0001318086
   0.1584003757   -0.0001275260    0.0001318086

1    
 -0.0100000000000000   0.0000000000000000   0.0000000000000000
   0.1587199651    0.0001277537   -0.0001311463
  -0.1587199651   -0.0001277537    0.0001311463
