phonopy:
  version: 2.8.1
  frequency_unit_conversion_factor: 15.633304
  symmetry_tolerance: 1.00000e-05

physical_unit:
  atomic_mass: "AMU"

space_group:
  type: "R-3m"
  number: 166
  Hall_symbol: "-R 3 2\""

supercell_matrix:
- [   1,   0,   0 ]
- [   0,   1,   0 ]
- [   0,   0,   1 ]

primitive_cell:
  lattice:
  - [     3.153119440000000,     0.000000000000000,     0.000000000000000 ] # a
  - [     0.000000000000000,     3.153119530000000,    -0.000000010000000 ] # b
  - [     0.000000000000000,    -0.000000010000000,     3.153119540000000 ] # c
  points:
  - symbol: W  # 1
    coordinates: [  0.999999898513201,  0.000000041229011,  0.000000104658259 ]
    mass: 183.840000
  - symbol: W  # 2
    coordinates: [  0.500002765515283,  0.500002625970850,  0.499997226556157 ]
    mass: 183.840000
  reciprocal_lattice: # without 2pi
  - [     0.317146248034296,     0.000000000000000,     0.000000000000000 ] # a*
  - [     0.000000000000000,     0.317146238981939,     0.000000001005817 ] # b*
  - [     0.000000000000000,     0.000000001005817,     0.317146237976122 ] # c*

unit_cell:
  lattice:
  - [     3.153119440000000,     0.000000000000000,    -0.000000000000000 ] # a
  - [     0.000000000000000,     3.153119530000000,    -0.000000010000000 ] # b
  - [    -0.000000000000000,    -0.000000010000000,     3.153119540000000 ] # c
  points:
  - symbol: W  # 1
    coordinates: [ -0.000000101486799,  0.000000041229011,  0.000000104658259 ]
    mass: 183.840000
    reduced_to: 1
  - symbol: W  # 2
    coordinates: [  0.500002765515283,  0.500002625970850,  0.499997226556157 ]
    mass: 183.840000
    reduced_to: 2

supercell:
  lattice:
  - [     3.153119440000000,     0.000000000000000,     0.000000000000000 ] # a
  - [     0.000000000000000,     3.153119530000000,    -0.000000010000000 ] # b
  - [     0.000000000000000,    -0.000000010000000,     3.153119540000000 ] # c
  points:
  - symbol: W  # 1
    coordinates: [  0.999999898513201,  0.000000041229011,  0.000000104658259 ]
    mass: 183.840000
    reduced_to: 1
  - symbol: W  # 2
    coordinates: [  0.500002765515283,  0.500002625970850,  0.499997226556157 ]
    mass: 183.840000
    reduced_to: 2

displacements:
- atom:    1
  displacement:
    [   0.0100000000000000,  0.0000000000000000,  0.0000000000000000 ]
  forces:
  - [  -0.1584003757101300,  0.0001275259677544, -0.0001318085700644 ]
  - [   0.1584003757101300, -0.0001275259677544,  0.0001318085700644 ]
- atom:    1
  displacement:
    [  -0.0100000000000000,  0.0000000000000000,  0.0000000000000000 ]
  forces:
  - [   0.1587199650626920,  0.0001277536893110, -0.0001311463083348 ]
  - [  -0.1587199650626920, -0.0001277536893110,  0.0001311463083348 ]
