# Thermal properties / unit cell (natom)

unit:
  temperature:   K
  free_energy:   kJ/mol
  entropy:       J/K/mol
  heat_capacity: J/K/mol

natom: 2    
cutoff_frequency:    0.000
num_modes: 546750
num_integrated_modes: 546526

zero_point_energy:       5.1469113
high_T_entropy:        206.6156182

thermal_properties:
- temperature:         0.0000000
  free_energy:         5.1469113
  entropy:             0.0000000
  heat_capacity:       0.0000000
  energy:              5.1469113

- temperature:        10.0000000
  free_energy:         5.1429153
  entropy:             0.7551376
  heat_capacity:       0.9965432
  energy:              5.1504667

- temperature:        20.0000000
  free_energy:         5.1291154
  entropy:             2.1273989
  heat_capacity:       3.4663348
  energy:              5.1716633

- temperature:        30.0000000
  free_energy:         5.0980372
  entropy:             4.1994921
  heat_capacity:       7.2003160
  energy:              5.2240219

- temperature:        40.0000000
  free_energy:         5.0430372
  entropy:             6.8956406
  heat_capacity:      11.8786712
  energy:              5.3188629

- temperature:        50.0000000
  free_energy:         4.9584796
  entropy:            10.0836422
  heat_capacity:      16.8799402
  energy:              5.4626617

- temperature:        60.0000000
  free_energy:         4.8403116
  entropy:            13.5880582
  heat_capacity:      21.6313828
  energy:              5.6555951

- temperature:        70.0000000
  free_energy:         4.6862121
  entropy:            17.2458355
  heat_capacity:      25.8297375
  energy:              5.8934206

- temperature:        80.0000000
  free_energy:         4.4952963
  entropy:            20.9346144
  heat_capacity:      29.3945076
  energy:              6.1700654

- temperature:        90.0000000
  free_energy:         4.2676892
  entropy:            24.5736432
  heat_capacity:      32.3625087
  energy:              6.4793171

- temperature:       100.0000000
  free_energy:         4.0041534
  entropy:            28.1144211
  heat_capacity:      34.8146137
  energy:              6.8155955

- temperature:       110.0000000
  free_energy:         3.7058177
  entropy:            31.5305994
  heat_capacity:      36.8386783
  energy:              7.1741836

- temperature:       120.0000000
  free_energy:         3.3739979
  entropy:            34.8100941
  heat_capacity:      38.5143633
  energy:              7.5512092

- temperature:       130.0000000
  free_energy:         3.0100829
  entropy:            37.9496263
  heat_capacity:      39.9086556
  energy:              7.9435343

- temperature:       140.0000000
  free_energy:         2.6154658
  entropy:            40.9511505
  heat_capacity:      41.0759242
  energy:              8.3486268

- temperature:       150.0000000
  free_energy:         2.1915037
  entropy:            43.8195871
  heat_capacity:      42.0595741
  energy:              8.7644418

- temperature:       160.0000000
  free_energy:         1.7394961
  entropy:            46.5614104
  heat_capacity:      42.8940330
  energy:              9.1893218

- temperature:       170.0000000
  free_energy:         1.2606737
  entropy:            49.1837823
  heat_capacity:      43.6065838
  energy:              9.6219167

- temperature:       180.0000000
  free_energy:         0.7561942
  entropy:            51.6940312
  heat_capacity:      44.2188982
  energy:             10.0611198

- temperature:       190.0000000
  free_energy:         0.2271428
  entropy:            54.0993459
  heat_capacity:      44.7482643
  energy:             10.5060185

- temperature:       200.0000000
  free_energy:        -0.3254659
  entropy:            56.4066051
  heat_capacity:      45.2085460
  energy:             10.9558551

- temperature:       210.0000000
  free_energy:        -0.9006841
  entropy:            58.6222894
  heat_capacity:      45.6109273
  energy:             11.4099967

- temperature:       220.0000000
  free_energy:        -1.4976266
  entropy:            60.7524443
  heat_capacity:      45.9644853
  energy:             11.8679111

- temperature:       230.0000000
  free_energy:        -2.1154666
  entropy:            62.8026744
  heat_capacity:      46.2766329
  energy:             12.3291485

- temperature:       240.0000000
  free_energy:        -2.7534310
  entropy:            64.7781549
  heat_capacity:      46.5534614
  energy:             12.7933262

- temperature:       250.0000000
  free_energy:        -3.4107965
  entropy:            66.6836534
  heat_capacity:      46.8000057
  energy:             13.2601169

- temperature:       260.0000000
  free_energy:        -4.0868855
  entropy:            68.5235570
  heat_capacity:      47.0204517
  energy:             13.7292393

- temperature:       270.0000000
  free_energy:        -4.7810625
  entropy:            70.3019004
  heat_capacity:      47.2182993
  energy:             14.2004506

- temperature:       280.0000000
  free_energy:        -5.4927307
  entropy:            72.0223948
  heat_capacity:      47.3964901
  energy:             14.6735399

- temperature:       290.0000000
  free_energy:        -6.2213289
  entropy:            73.6884558
  heat_capacity:      47.5575093
  energy:             15.1483232

- temperature:       300.0000000
  free_energy:        -6.9663289
  entropy:            75.3032291
  heat_capacity:      47.7034668
  energy:             15.6246399

- temperature:       310.0000000
  free_energy:        -7.7272323
  entropy:            76.8696150
  heat_capacity:      47.8361621
  energy:             16.1023484

- temperature:       320.0000000
  free_energy:        -8.5035688
  entropy:            78.3902903
  heat_capacity:      47.9571371
  energy:             16.5813241

- temperature:       330.0000000
  free_energy:        -9.2948940
  entropy:            79.8677287
  heat_capacity:      48.0677184
  energy:             17.0614565

- temperature:       340.0000000
  free_energy:       -10.1007869
  entropy:            81.3042193
  heat_capacity:      48.1690520
  energy:             17.5426476

- temperature:       350.0000000
  free_energy:       -10.9208489
  entropy:            82.7018828
  heat_capacity:      48.2621316
  energy:             18.0248101

- temperature:       360.0000000
  free_energy:       -11.7547017
  entropy:            84.0626872
  heat_capacity:      48.3478223
  energy:             18.5078657

- temperature:       370.0000000
  free_energy:       -12.6019859
  entropy:            85.3884603
  heat_capacity:      48.4268796
  energy:             18.9917444

- temperature:       380.0000000
  free_energy:       -13.4623598
  entropy:            86.6809031
  heat_capacity:      48.4999658
  energy:             19.4763833

- temperature:       390.0000000
  free_energy:       -14.3354982
  entropy:            87.9415998
  heat_capacity:      48.5676629
  energy:             19.9617258

- temperature:       400.0000000
  free_energy:       -15.2210910
  entropy:            89.1720283
  heat_capacity:      48.6304845
  energy:             20.4477204

- temperature:       410.0000000
  free_energy:       -16.1188425
  entropy:            90.3735687
  heat_capacity:      48.6888846
  energy:             20.9343207

- temperature:       420.0000000
  free_energy:       -17.0284704
  entropy:            91.5475119
  heat_capacity:      48.7432661
  energy:             21.4214847

- temperature:       430.0000000
  free_energy:       -17.9497048
  entropy:            92.6950665
  heat_capacity:      48.7939873
  energy:             21.9091738

- temperature:       440.0000000
  free_energy:       -18.8822875
  entropy:            93.8173654
  heat_capacity:      48.8413674
  energy:             22.3973533

- temperature:       450.0000000
  free_energy:       -19.8259714
  entropy:            94.9154721
  heat_capacity:      48.8856922
  energy:             22.8859910

- temperature:       460.0000000
  free_energy:       -20.7805196
  entropy:            95.9903857
  heat_capacity:      48.9272173
  energy:             23.3750578

- temperature:       470.0000000
  free_energy:       -21.7457050
  entropy:            97.0430463
  heat_capacity:      48.9661725
  energy:             23.8645268

- temperature:       480.0000000
  free_energy:       -22.7213093
  entropy:            98.0743390
  heat_capacity:      49.0027647
  energy:             24.3543734

- temperature:       490.0000000
  free_energy:       -23.7071233
  entropy:            99.0850982
  heat_capacity:      49.0371801
  energy:             24.8445748

- temperature:       500.0000000
  free_energy:       -24.7029455
  entropy:           100.0761115
  heat_capacity:      49.0695875
  energy:             25.3351103

- temperature:       510.0000000
  free_energy:       -25.7085822
  entropy:           101.0481227
  heat_capacity:      49.1001393
  energy:             25.8259604

- temperature:       520.0000000
  free_energy:       -26.7238470
  entropy:           102.0018352
  heat_capacity:      49.1289740
  energy:             26.3171073

- temperature:       530.0000000
  free_energy:       -27.7485601
  entropy:           102.9379145
  heat_capacity:      49.1562175
  energy:             26.8085346

- temperature:       540.0000000
  free_energy:       -28.7825486
  entropy:           103.8569914
  heat_capacity:      49.1819841
  energy:             27.3002268

- temperature:       550.0000000
  free_energy:       -29.8256453
  entropy:           104.7596636
  heat_capacity:      49.2063785
  energy:             27.7921697

- temperature:       560.0000000
  free_energy:       -30.8776891
  entropy:           105.6464985
  heat_capacity:      49.2294959
  energy:             28.2843501

- temperature:       570.0000000
  free_energy:       -31.9385243
  entropy:           106.5180349
  heat_capacity:      49.2514237
  energy:             28.7767556

- temperature:       580.0000000
  free_energy:       -33.0080005
  entropy:           107.3747851
  heat_capacity:      49.2722419
  energy:             29.2693749

- temperature:       590.0000000
  free_energy:       -34.0859723
  entropy:           108.2172361
  heat_capacity:      49.2920239
  energy:             29.7621970

- temperature:       600.0000000
  free_energy:       -35.1722991
  entropy:           109.0458520
  heat_capacity:      49.3108371
  energy:             30.2552121

- temperature:       610.0000000
  free_energy:       -36.2668447
  entropy:           109.8610745
  heat_capacity:      49.3287435
  energy:             30.7484107

- temperature:       620.0000000
  free_energy:       -37.3694773
  entropy:           110.6633250
  heat_capacity:      49.3458004
  energy:             31.2417841

- temperature:       630.0000000
  free_energy:       -38.4800693
  entropy:           111.4530054
  heat_capacity:      49.3620604
  energy:             31.7353241

- temperature:       640.0000000
  free_energy:       -39.5984968
  entropy:           112.2304995
  heat_capacity:      49.3775724
  energy:             32.2290229

- temperature:       650.0000000
  free_energy:       -40.7246399
  entropy:           112.9961740
  heat_capacity:      49.3923815
  energy:             32.7228732

- temperature:       660.0000000
  free_energy:       -41.8583821
  entropy:           113.7503793
  heat_capacity:      49.4065292
  energy:             33.2168683

- temperature:       670.0000000
  free_energy:       -42.9996104
  entropy:           114.4934509
  heat_capacity:      49.4200544
  energy:             33.7110017

- temperature:       680.0000000
  free_energy:       -44.1482151
  entropy:           115.2257095
  heat_capacity:      49.4329930
  energy:             34.2052674

- temperature:       690.0000000
  free_energy:       -45.3040895
  entropy:           115.9474627
  heat_capacity:      49.4453783
  energy:             34.6996597

- temperature:       700.0000000
  free_energy:       -46.4671303
  entropy:           116.6590050
  heat_capacity:      49.4572413
  energy:             35.1941732

- temperature:       710.0000000
  free_energy:       -47.6372365
  entropy:           117.3606190
  heat_capacity:      49.4686110
  energy:             35.6888029

- temperature:       720.0000000
  free_energy:       -48.8143105
  entropy:           118.0525755
  heat_capacity:      49.4795143
  energy:             36.1835439

- temperature:       730.0000000
  free_energy:       -49.9982567
  entropy:           118.7351349
  heat_capacity:      49.4899763
  energy:             36.6783917

- temperature:       740.0000000
  free_energy:       -51.1889827
  entropy:           119.4085469
  heat_capacity:      49.5000203
  energy:             37.1733420

- temperature:       750.0000000
  free_energy:       -52.3863980
  entropy:           120.0730517
  heat_capacity:      49.5096685
  energy:             37.6683908

- temperature:       760.0000000
  free_energy:       -53.5904148
  entropy:           120.7288802
  heat_capacity:      49.5189412
  energy:             38.1635342

- temperature:       770.0000000
  free_energy:       -54.8009474
  entropy:           121.3762544
  heat_capacity:      49.5278576
  energy:             38.6587684

- temperature:       780.0000000
  free_energy:       -56.0179124
  entropy:           122.0153879
  heat_capacity:      49.5364358
  energy:             39.1540902

- temperature:       790.0000000
  free_energy:       -57.2412284
  entropy:           122.6464867
  heat_capacity:      49.5446926
  energy:             39.6494961

- temperature:       800.0000000
  free_energy:       -58.4708160
  entropy:           123.2697488
  heat_capacity:      49.5526439
  energy:             40.1449830

- temperature:       810.0000000
  free_energy:       -59.7065979
  entropy:           123.8853653
  heat_capacity:      49.5603044
  energy:             40.6405480

- temperature:       820.0000000
  free_energy:       -60.9484984
  entropy:           124.4935203
  heat_capacity:      49.5676882
  energy:             41.1361882

- temperature:       830.0000000
  free_energy:       -62.1964440
  entropy:           125.0943914
  heat_capacity:      49.5748084
  energy:             41.6319009

- temperature:       840.0000000
  free_energy:       -63.4503626
  entropy:           125.6881501
  heat_capacity:      49.5816775
  energy:             42.1276835

- temperature:       850.0000000
  free_energy:       -64.7101838
  entropy:           126.2749617
  heat_capacity:      49.5883070
  energy:             42.6235336

- temperature:       860.0000000
  free_energy:       -65.9758392
  entropy:           126.8549861
  heat_capacity:      49.5947080
  energy:             43.1194489

- temperature:       870.0000000
  free_energy:       -67.2472615
  entropy:           127.4283776
  heat_capacity:      49.6008908
  energy:             43.6154271

- temperature:       880.0000000
  free_energy:       -68.5243851
  entropy:           127.9952854
  heat_capacity:      49.6068652
  energy:             44.1114660

- temperature:       890.0000000
  free_energy:       -69.8071460
  entropy:           128.5558537
  heat_capacity:      49.6126405
  energy:             44.6075637

- temperature:       900.0000000
  free_energy:       -71.0954815
  entropy:           129.1102219
  heat_capacity:      49.6182254
  energy:             45.1037182

- temperature:       910.0000000
  free_energy:       -72.3893303
  entropy:           129.6585251
  heat_capacity:      49.6236281
  energy:             45.5999276

- temperature:       920.0000000
  free_energy:       -73.6886322
  entropy:           130.2008939
  heat_capacity:      49.6288566
  energy:             46.0961902

- temperature:       930.0000000
  free_energy:       -74.9933288
  entropy:           130.7374548
  heat_capacity:      49.6339182
  energy:             46.5925042

- temperature:       940.0000000
  free_energy:       -76.3033624
  entropy:           131.2683302
  heat_capacity:      49.6388198
  energy:             47.0888680

- temperature:       950.0000000
  free_energy:       -77.6186768
  entropy:           131.7936388
  heat_capacity:      49.6435683
  energy:             47.5852801

- temperature:       960.0000000
  free_energy:       -78.9392170
  entropy:           132.3134957
  heat_capacity:      49.6481699
  energy:             48.0817389

- temperature:       970.0000000
  free_energy:       -80.2649289
  entropy:           132.8280123
  heat_capacity:      49.6526305
  energy:             48.5782430

- temperature:       980.0000000
  free_energy:       -81.5957598
  entropy:           133.3372968
  heat_capacity:      49.6569559
  energy:             49.0747910

- temperature:       990.0000000
  free_energy:       -82.9316578
  entropy:           133.8414540
  heat_capacity:      49.6611515
  energy:             49.5713817

- temperature:      1000.0000000
  free_energy:       -84.2725721
  entropy:           134.3405858
  heat_capacity:      49.6652225
  energy:             50.0680137
