------------------------------------------------------------
          Invoking FHI-aims ...

          When using FHI-aims, please cite the following reference:

            Volker Blum, Ralf Gehrke, Felix Hanke, Paula Havu,
            Ville Havu, Xinguo Ren, Karsten Reuter, and Matthias Scheffler,
            'Ab Initio Molecular Simulations with Numeric Atom-Centered Orbitals',
            Computer Physics Communications 180, 2175-2196 (2009)

          In addition, many other developments in FHI-aims are likely important for
          your particular application. A partial list of references is given at the end of
          this file. Thank you for giving credit to the authors of these developments.

          For any questions about FHI-aims, please visit our slack channel at

            https://fhi-aims.slack.com

          and our main development and support site at

            https://aims-git.rz-berlin.mpg.de .

          The latter site, in particular, has a wiki to collect information, as well
          as an issue tracker to log discussions, suggest improvements, and report issues
          or bugs. https://aims-git.rz-berlin.mpg.de is also the main development site
          of the project and all new and updated code versions can be obtained there.
          Please send an email to aims-coordinators@fhi-berlin.mpg.de and we will add
          you to these sites. They are for you and everyone is welcome there.

------------------------------------------------------------



  Date     :  20210906, Time     :  124916.171
  Time zero on CPU 1             :   0.186504000000000E+00  s.
  Internal wall clock time zero  :           400164556.171  s.

  FHI-aims created a unique identifier for this run for later identification
  aims_uuid : 8BA222AD-F13E-4F7F-A159-C45E95DADED5

  Build configuration of the current instance of FHI-aims
  -------------------------------------------------------
  FHI-aims version      : 210413
  Commit number         : e4873593e
  CMake host system     : Linux-4.12.14-122.57-default
  CMake version         : 3.5.2
  Fortran compiler      : /mpcdf/soft/SLE_12/packages/x86_64/intel_parallel_studio/2020.1/compilers_and_libraries_2020.1.217/linux/mpi/intel64/bin/mpiifort (Intel) version 19.1.0.20200306
  Fortran compiler flags: -O3 -ip -fp-model precise
  C compiler            : /mpcdf/soft/SLE_12/packages/x86_64/intel/19.1.1/bin/icc (Intel) version 19.1.0.20200306
  C compiler flags      : -O3 -ip -fp-model precise -std=gnu99
  C++ compiler          : /mpcdf/soft/SLE_12/packages/x86_64/intel/19.1.1/bin/icpc (Intel) version 19.1.0.20200306
  C++ compiler flags    : -O3 -ip -fp-model precise -std=gnu99
  Using MPI
  Using ScaLAPACK
  Using LibXC
  Using i-PI
  Using RLSY
  Linking against: /mpcdf/soft/SLE_12/packages/x86_64/intel_parallel_studio/2020.1/mkl/lib/intel64/libmkl_intel_lp64.so
                   /mpcdf/soft/SLE_12/packages/x86_64/intel_parallel_studio/2020.1/mkl/lib/intel64/libmkl_sequential.so
                   /mpcdf/soft/SLE_12/packages/x86_64/intel_parallel_studio/2020.1/mkl/lib/intel64/libmkl_core.so
                   /mpcdf/soft/SLE_12/packages/x86_64/intel_parallel_studio/2020.1/mkl/lib/intel64/libmkl_blacs_intelmpi_lp64.so
                   /mpcdf/soft/SLE_12/packages/x86_64/intel_parallel_studio/2020.1/mkl/lib/intel64/libmkl_scalapack_lp64.so

  Using      160 parallel tasks.
  Task        0 on host co1325 reporting.
  Task        1 on host co1325 reporting.
  Task        2 on host co1325 reporting.
  Task        3 on host co1325 reporting.
  Task        4 on host co1325 reporting.
  Task        5 on host co1325 reporting.
  Task        6 on host co1325 reporting.
  Task        7 on host co1325 reporting.
  Task        8 on host co1325 reporting.
  Task        9 on host co1325 reporting.
  Task       10 on host co1325 reporting.
  Task       11 on host co1325 reporting.
  Task       12 on host co1325 reporting.
  Task       13 on host co1325 reporting.
  Task       14 on host co1325 reporting.
  Task       15 on host co1325 reporting.
  Task       16 on host co1325 reporting.
  Task       17 on host co1325 reporting.
  Task       18 on host co1325 reporting.
  Task       19 on host co1325 reporting.
  Task       20 on host co1325 reporting.
  Task       21 on host co1325 reporting.
  Task       22 on host co1325 reporting.
  Task       23 on host co1325 reporting.
  Task       24 on host co1325 reporting.
  Task       25 on host co1325 reporting.
  Task       26 on host co1325 reporting.
  Task       27 on host co1325 reporting.
  Task       28 on host co1325 reporting.
  Task       29 on host co1325 reporting.
  Task       30 on host co1325 reporting.
  Task       31 on host co1325 reporting.
  Task       32 on host co1325 reporting.
  Task       33 on host co1325 reporting.
  Task       34 on host co1325 reporting.
  Task       35 on host co1325 reporting.
  Task       36 on host co1325 reporting.
  Task       37 on host co1325 reporting.
  Task       38 on host co1325 reporting.
  Task       39 on host co1325 reporting.
  Task       40 on host co1326 reporting.
  Task       41 on host co1326 reporting.
  Task       42 on host co1326 reporting.
  Task       43 on host co1326 reporting.
  Task       44 on host co1326 reporting.
  Task       45 on host co1326 reporting.
  Task       46 on host co1326 reporting.
  Task       47 on host co1326 reporting.
  Task       48 on host co1326 reporting.
  Task       49 on host co1326 reporting.
  Task       50 on host co1326 reporting.
  Task       51 on host co1326 reporting.
  Task       52 on host co1326 reporting.
  Task       53 on host co1326 reporting.
  Task       54 on host co1326 reporting.
  Task       55 on host co1326 reporting.
  Task       56 on host co1326 reporting.
  Task       57 on host co1326 reporting.
  Task       58 on host co1326 reporting.
  Task       59 on host co1326 reporting.
  Task       60 on host co1326 reporting.
  Task       61 on host co1326 reporting.
  Task       62 on host co1326 reporting.
  Task       63 on host co1326 reporting.
  Task       64 on host co1326 reporting.
  Task       65 on host co1326 reporting.
  Task       66 on host co1326 reporting.
  Task       67 on host co1326 reporting.
  Task       68 on host co1326 reporting.
  Task       69 on host co1326 reporting.
  Task       70 on host co1326 reporting.
  Task       71 on host co1326 reporting.
  Task       72 on host co1326 reporting.
  Task       73 on host co1326 reporting.
  Task       74 on host co1326 reporting.
  Task       75 on host co1326 reporting.
  Task       76 on host co1326 reporting.
  Task       77 on host co1326 reporting.
  Task       78 on host co1326 reporting.
  Task       79 on host co1326 reporting.
  Task       80 on host co1327 reporting.
  Task       81 on host co1327 reporting.
  Task       82 on host co1327 reporting.
  Task       83 on host co1327 reporting.
  Task       84 on host co1327 reporting.
  Task       85 on host co1327 reporting.
  Task       86 on host co1327 reporting.
  Task       87 on host co1327 reporting.
  Task       88 on host co1327 reporting.
  Task       89 on host co1327 reporting.
  Task       90 on host co1327 reporting.
  Task       91 on host co1327 reporting.
  Task       92 on host co1327 reporting.
  Task       93 on host co1327 reporting.
  Task       94 on host co1327 reporting.
  Task       95 on host co1327 reporting.
  Task       96 on host co1327 reporting.
  Task       97 on host co1327 reporting.
  Task       98 on host co1327 reporting.
  Task       99 on host co1327 reporting.
  Task      100 on host co1327 reporting.
  Task      101 on host co1327 reporting.
  Task      102 on host co1327 reporting.
  Task      103 on host co1327 reporting.
  Task      104 on host co1327 reporting.
  Task      105 on host co1327 reporting.
  Task      106 on host co1327 reporting.
  Task      107 on host co1327 reporting.
  Task      108 on host co1327 reporting.
  Task      109 on host co1327 reporting.
  Task      110 on host co1327 reporting.
  Task      111 on host co1327 reporting.
  Task      112 on host co1327 reporting.
  Task      113 on host co1327 reporting.
  Task      114 on host co1327 reporting.
  Task      115 on host co1327 reporting.
  Task      116 on host co1327 reporting.
  Task      117 on host co1327 reporting.
  Task      118 on host co1327 reporting.
  Task      119 on host co1327 reporting.
  Task      120 on host co1328 reporting.
  Task      121 on host co1328 reporting.
  Task      122 on host co1328 reporting.
  Task      123 on host co1328 reporting.
  Task      124 on host co1328 reporting.
  Task      125 on host co1328 reporting.
  Task      126 on host co1328 reporting.
  Task      127 on host co1328 reporting.
  Task      128 on host co1328 reporting.
  Task      129 on host co1328 reporting.
  Task      130 on host co1328 reporting.
  Task      131 on host co1328 reporting.
  Task      132 on host co1328 reporting.
  Task      133 on host co1328 reporting.
  Task      134 on host co1328 reporting.
  Task      135 on host co1328 reporting.
  Task      136 on host co1328 reporting.
  Task      137 on host co1328 reporting.
  Task      138 on host co1328 reporting.
  Task      139 on host co1328 reporting.
  Task      140 on host co1328 reporting.
  Task      141 on host co1328 reporting.
  Task      142 on host co1328 reporting.
  Task      143 on host co1328 reporting.
  Task      144 on host co1328 reporting.
  Task      145 on host co1328 reporting.
  Task      146 on host co1328 reporting.
  Task      147 on host co1328 reporting.
  Task      148 on host co1328 reporting.
  Task      149 on host co1328 reporting.
  Task      150 on host co1328 reporting.
  Task      151 on host co1328 reporting.
  Task      152 on host co1328 reporting.
  Task      153 on host co1328 reporting.
  Task      154 on host co1328 reporting.
  Task      155 on host co1328 reporting.
  Task      156 on host co1328 reporting.
  Task      157 on host co1328 reporting.
  Task      158 on host co1328 reporting.
  Task      159 on host co1328 reporting.

  Performing system and environment tests:
  | Environment variable OMP_NUM_THREADS correctly set to 1.
  | Checking for ScaLAPACK...
  | Testing pdtran()...
  | All pdtran() tests passed.

  Obtaining array dimensions for all initial allocations:
  
  -----------------------------------------------------------------------
  Parsing control.in (first pass over file, find array dimensions only).
  The contents of control.in will be repeated verbatim below
  unless switched off by setting 'verbatim_writeout .false.' .
  in the first line of control.in .
  -----------------------------------------------------------------------
  
  ##### Physical settings  ################
  xc                 pbe
  spin               none
  charge      0.0
  relativistic       atomic_zora scalar
  #elsi_restart read
  # SCF settings
  
  #vdw_correction_hirshfeld
  occupation_type gaussian       0.01
  # k-grid settings  (to be adjusted)
  k_grid  4 4 1
  #empty_states 8
  
  output cube stm -1.0
  #mixer   pulay
  #n_max_pulay        12 # high for metal
  #charge_mix_param   0.07 #low for metal
  
  #output cube stm -0.5
  many_body_dispersion_nl    beta=0.81
  ################################################################################
  #
  #  FHI-aims code project
  # Volker Blum, Fritz Haber Institute Berlin, 2009
  #
  #  Suggested "tight" defaults for S atom (to be pasted into control.in file)
  #
  #  Revised Jan 04, 2011, following tests (SiC) done by Lydia Nemec:
  #     d and g functions of tier 2 now enabled by default.
  #
  ################################################################################
    species        S
  #     global species definitions
      nucleus             16
      mass                32.065
  #
      l_hartree           6
  #
      cut_pot             4.0          2.0  1.0
      basis_dep_cutoff    1e-4
  #
      radial_base         44 7.0
      radial_multiplier   2
      angular_grids       specified
        division   0.4665  110
        division   0.5810  194
        division   0.7139  302
        division   0.8274  434
  #      division   0.9105  590
  #      division   1.0975  770
  #      division   1.2028  974
  #      outer_grid  974
        outer_grid  434
  ################################################################################
  #
  #  Definition of "minimal" basis
  #
  ################################################################################
  #     valence basis states
      valence      3  s   2.
      valence      3  p   4.
  #     ion occupancy
      ion_occ      3  s   1.
      ion_occ      3  p   3.
  ################################################################################
  #
  #  Suggested additional basis functions. For production calculations,
  #  uncomment them one after another (the most important basis functions are
  #  listed first).
  #
  #  Constructed for dimers: 1.6 A, 1.9 A, 2.5 A, 3.25 A, 4.0 A
  #
  ################################################################################
  #  "First tier" - improvements: -652.81 meV to -45.53 meV
       ionic 3 d auto
       hydro 2 p 1.8
       hydro 4 f 7
       ionic 3 s auto
  #  "Second tier" - improvements: -30.20 meV to -1.74 meV
       hydro 4 d 6.2
       hydro 5 g 10.8
  #     hydro 4 p 4.9
  #     hydro 5 f 10
  #     hydro 1 s 0.8
  #  "Third tier" - improvements: -1.04 meV to -0.20 meV
  #     hydro 3 d 3.9
  #     hydro 3 d 2.7
  #     hydro 5 g 12
  #     hydro 4 p 10.4
  #     hydro 5 f 12.4
  #     hydro 2 s 1.9
  #  "Fourth tier" - improvements: -0.35 meV to -0.06 meV
  #     hydro 4 d 10.4
  #     hydro 4 p 7.2
  #     hydro 4 d 10
  #     hydro 5 g 19.2
  #     hydro 4 s 12
  
  ################################################################################
  #
  # For methods that use the localized form of the "resolution of identity" for
  # the two-electron Coulomb operator (RI_method LVL), particularly Hartree-Fock and
  # hybrid density functional calculations, the highest accuracy can be obtained by
  # uncommenting the line beginning with "for_aux"  below, thus adding an extra g radial
  # function to the construction of the product basis set for the expansion.
  # See Ref. New J. Phys. 17, 093020 (2015) for more information, particularly Figs. 1 and 6.
  #
  ################################################################################
  #
  # for_aux hydro 5 g 6.0
  ################################################################################
  #
  #  FHI-aims code project
  # Volker Blum, Fritz Haber Institute Berlin, 2009
  #
  #  Suggested "tight" defaults for Mo atom (to be pasted into control.in file)
  #
  ################################################################################
    species        Mo
  #     global species definitions
      nucleus             42
      mass                95.94
  #
      l_hartree           6
  #
      cut_pot             4.0  2.0  1.0
      basis_dep_cutoff    1e-4
  #
      radial_base         59 7.0
      radial_multiplier   2
      angular_grids specified
        division   0.3117   50
        division   0.6750  110
        division   1.0351  194
        division   1.2073  302
        division   1.6402  434
  #      division   1.9185  590
  #      division   2.0237  770
  #      division   2.0980  974
  #      division   2.7972 1202
  #      outer_grid  974
        outer_grid  434
  ################################################################################
  #
  #  Definition of "minimal" basis
  #
  ################################################################################
  #     valence basis states
      valence      5  s   1.
      valence      4  p   6.
      valence      4  d   5.
  #     ion occupancy
      ion_occ     5  s   0.
      ion_occ     4  p   6.
      ion_occ     4  d   4.
  ################################################################################
  #
  #  Suggested additional basis functions. For production calculations,
  #  uncomment them one after another (the most important basis functions are
  #  listed first).
  #
  #  Constructed for dimers: 1.675 A, 1.9 A, 2.375 A, 3.00 A, 4.00 A
  #
  ################################################################################
  #  "First tier"  - max. impr. -711.23  meV, min. impr. -21.07 meV
       hydro 4 f 8.4
       hydro 3 d 2.8
       ionic 5 p auto
       hydro 5 g 12
       ionic 5 s auto
  #  "Second tier" - max. impr. -39.38  meV, min. impr. -2.68 meV
  #     hydro 4 f 12.4
  #     hydro 3 d 3.3
  #     hydro 6 h 17.2
  #     hydro 4 f 7.6
  #     hydro 3 p 3.0
  #     hydro 1 s 0.65
  #  "Third tier"  - max. impr. -5.50 meV, min. impr. -0.47 meV
  #     hydro 4 f 29.2
  #     hydro 5 g 11.2
  #     hydro 3 d 6.8
  #     hydro 6 h 14.8
  #     hydro 2 p 2.3
  #     hydro 4 s 3.8
  #  "Fourth tier"  - max. impr. -0.58 meV, min. impr. -0.19 meV
  #     hydro 5 f 6.8
  #     hydro 5 d 14.8
  #     hydro 6 s 7.8
  #     hydro 5 g 20.8
  #     hydro 5 d 10.4
  #     hydro 5 p 9.8
  #  Further functions - -0.17 meV and below
  #     hydro 5 d 3.2
  ################################################################################
  #
  #  FHI-aims code project
  # Volker Blum, Fritz Haber Institute Berlin, 2009
  #
  #  Suggested "tight" defaults for W atom (to be pasted into control.in file)
  #
  ################################################################################
    species          W
  #     global species definitions
      nucleus        74
      mass           183.84
  #
      l_hartree      6
  #
      cut_pot        4.0  2.0  1.0
      basis_dep_cutoff    1e-4
  #
      radial_base    71  7.0
      radial_multiplier  2
      angular_grids specified
        division   0.2901   50
        division   0.6986  110
        division   1.0528  194
        division   1.2659  302
        division   1.5223  434
  #      division   1.8111  590
  #      division   2.0105  770
  #      division   2.0413  974
  #      division   2.8804 1202
  #      outer_grid  974
        outer_grid  434
  ################################################################################
  #
  #  Definition of "minimal" basis
  #
  ################################################################################
  #     valence basis states
      valence      6  s   2.
      valence      5  p   6.
      valence      5  d   4.
      valence      4  f  14.
  #     ion occupancy
      ion_occ      6  s   1.
      ion_occ      5  p   6.
      ion_occ      5  d   3.
      ion_occ      4  f  14.
  ################################################################################
  #
  #  Suggested additional basis functions. For production calculations,
  #  uncomment them one after another (the most important basis functions are
  #  listed first).
  #
  #  Constructed for dimers: 1.775, 1.99, 2.50, 3.25, 4.50 AA
  #
  ################################################################################
  #
  #  "First tier" - improvements: -603.77 meV to -28.99 meV
       hydro 4 f 7.8
       hydro 4 d 5.8
       ionic 6 p auto
       hydro 5 g 12.4
       ionic 6 s auto
  #  "Second tier" - improvements: -28.30 meV to -1.31 meV
  #     hydro 6 h 16.8
  #     ionic 5 d auto
  #     hydro 4 f 8.6
  #     hydro 5 g 16.8
  #     hydro 5 d 8.4
  #     hydro 3 p 3.3
  #     hydro 1 s 0.55
  #  "Third tier" - max. impr. -1.79 meV, min. impr. -0.26 meV
  #     hydro 5 f 10.8
  #     hydro 5 g 34.4
  #     hydro 6 h 20.8
  #     hydro 5 g 12.8
  #     hydro 2 p 1.6
  #     hydro 4 s 4.7
  #     hydro 6 d 18.4
  #  "Fourth tier" -0.46 max. impr. - meV, min. impr. -0.09 meV
  #     hydro 6 h 21.6
  #     hydro 5 f 22.4
  #     hydro 4 f 4
  #     hydro 5 p 9.6
  #     hydro 6 d 17.2
  #     hydro 3 p 5.2
  #     hydro 5 g 4.7
  #     hydro 6 s 7.6
  ################################################################################
  #
  #  FHI-aims code project
  # Volker Blum, Fritz Haber Institute Berlin, 2009
  #
  #  Suggested "tight" defaults for Se atom (to be pasted into control.in file)
  #
  ################################################################################
    species        Se
  #     global species definitions
      nucleus             34
      mass                78.96
  #
      l_hartree           6
  #
      cut_pot             4.0          2.0  1.0
      basis_dep_cutoff    1e-4
  #
      radial_base         55 7.0
      radial_multiplier   2
      angular_grids       specified
        division   0.0830  110
        division   0.1357  194
        division   0.7377  302
        division   0.8610  434
  #      division   0.9640  590
  #      division   1.0773  770
  #      division   2.5539  974
  #      outer_grid  974
        outer_grid  434
  ################################################################################
  #
  #  Definition of "minimal" basis
  #
  ################################################################################
  #     valence basis states
      valence      4  s   2.
      valence      4  p   4.
      valence      3  d  10.
  #     ion occupancy
      ion_occ      4  s   1.
      ion_occ      4  p   3.
      ion_occ      3  d  10.
  ################################################################################
  #
  #  Suggested additional basis functions. For production calculations,
  #  uncomment them one after another (the most important basis functions are
  #  listed first).
  #
  #  Constructed for dimers: 1.85 A, 2.15 A, 2.50 A, 3.00 A, 4.00 A
  #
  ################################################################################
  #  "First tier" - improvements: -336.21 meV to -36.85 meV
       hydro 3 d 4.3
       hydro 2 p 1.6
       hydro 4 f 7.2
       ionic 4 s auto
  #  "Second tier" - improvements: -14.39 meV to -1.49 meV
  #     hydro 5 g 10.4
  #     hydro 4 p 4.5
  #     hydro 4 d 6.2
  #     hydro 4 f 11.2
  #     hydro 1 s 0.65
  #     hydro 6 h 15.2
  #  "Third tier" - improvements: -0.46 meV and below
  #     hydro 5 g 14.4
  #     ionic 4 d auto
  #     hydro 4 f 22.4
  #     hydro 5 f 7.4
  #     hydro 5 p 8
  #     hydro 5 s 9.4
  #  "Fourth tier" - improvements: -0.12 meV and below
  #     hydro 5 d 11.6
  #     hydro 6 h 18
  #     hydro 4 p 4
  #     hydro 5 f 16
  #     hydro 4 s 3.9
  
  
  
  -----------------------------------------------------------------------
  Completed first pass over input file control.in .
  -----------------------------------------------------------------------
  
  
  -----------------------------------------------------------------------
  Parsing geometry.in (first pass over file, find array dimensions only).
  The contents of geometry.in will be repeated verbatim below
  unless switched off by setting 'verbatim_writeout .false.' .
  in the first line of geometry.in .
  -----------------------------------------------------------------------
  
  #
  # This is the geometry file that corresponds to the current relaxation step.
  # If you do not want this file to be written, set the "write_restart_geometry" flag to .false.
  #  aims_uuid : 14A3DC53-22E3-4139-AAB0-20C4D0D3E72C
  #
  lattice_vector     16.60000000      0.00000000      0.00000000
  lattice_vector     -8.30000000     14.37602170      0.00000000
  lattice_vector      0.00000000      0.00000000    100.00000000
  atom       0.00090506      0.97908061      2.66500000 Mo
  atom       1.66000885      1.95534901      4.32310273 Se
  atom       1.66000885      1.95534901      1.00689727 Se
  atom      -1.63457637      3.88084640      2.66500000 Mo
  atom       0.05488617      4.92663475      4.31936942 Se
  atom       0.05488617      4.92663475      1.01063058 Se
  atom      -3.26633088      6.70718588      2.66500000 Mo
  atom      -1.51589447      7.64733998      4.31939048 Se
  atom      -1.51589447      7.64733998      1.01060952 Se
  atom      -4.96165838      9.57439496      2.66500000 Mo
  atom      -3.28657937     10.52310862      4.32308788 Se
  atom      -3.28657937     10.52310862      1.00691212 Se
  atom      -6.64003621     12.45919919      2.66500000 Mo
  atom      -4.97209766     13.42214953      4.32208387 Se
  atom      -4.97209766     13.42214953      1.00791613 Se
  atom       3.31913963      0.97906448      2.66500000 Mo
  atom       4.97229983      1.94702293      4.32536271 Se
  atom       4.97229983      1.94702293      1.00463729 Se
  atom       1.66007231      3.89953599      2.66500000 Mo
  atom       3.26523659      4.92663582      4.31937150 Se
  atom       3.26523659      4.92663582      1.01062850 Se
  atom       0.23377928      6.84376622      2.66500000 Mo
  atom      -1.60281384      9.55099543      2.66500000 Mo
  atom       0.08921344     10.42763991      4.31938022 Se
  atom       0.08921344     10.42763991      1.01061978 Se
  atom      -3.30249650     12.44810360      2.66500000 Mo
  atom      -1.63765121     13.39581082      4.32535735 Se
  atom      -1.63765121     13.39581082      1.00464265 Se
  atom       6.63699491      0.95665054      2.66500000 Mo
  atom       8.29699491      1.91508346      4.32803431 Se
  atom       8.29699491      1.91508346      1.00196569 Se
  atom       4.95463759      3.88079991      2.66500000 Mo
  atom       6.62359191      4.80149386      4.33004614 Se
  atom       6.62359191      4.80149386      0.99995386 Se
  atom       3.08621130      6.84376407      2.66500000 Mo
  atom       4.83587625      7.64737432      4.31939379 Se
  atom       4.83587625      7.64737432      1.01060621 Se
  atom       1.65994974      9.31408876      2.66500000 Mo
  atom       3.23069092     10.42764837      4.31938578 Se
  atom       3.23069092     10.42764837      1.01061422 Se
  atom       0.02825712     12.41360941      2.66500000 Mo
  atom       1.65998596     13.39874541      4.33005960 Se
  atom       1.65998596     13.39874541      0.99994040 Se
  atom       9.96001909      0.94977212      2.66500000 Mo
  atom      11.62305256      1.91509418      4.32804123 Se
  atom      11.62305256      1.91509418      1.00195877 Se
  atom       8.29249609      3.83796974      2.66500000 Mo
  atom       9.96002818      4.79551104      4.32803740 Se
  atom       9.96002818      4.79551104      1.00196260 Se
  atom       6.58632023      6.70719575      2.66500000 Mo
  atom       8.26990836      7.65877757      4.32535235 Se
  atom       8.26990836      7.65877757      1.00464765 Se
  atom       4.92271454      9.55101532      2.66500000 Mo
  atom       6.60650242     10.52312567      4.32308451 Se
  atom       6.60650242     10.52312567      1.00691549 Se
  atom       3.29171921     12.41363472      2.66500000 Mo
  atom       4.95763848     13.39582784      4.32534815 Se
  atom       4.95763848     13.39582784      1.00465185 Se
  atom      13.28301261      0.95667575      2.66500000 Mo
  atom      14.94776059      1.94704014      4.32535491 Se
  atom      14.94776059      1.94704014      1.00464509 Se
  atom      11.62754743      3.83797351      2.66500000 Mo
  atom      13.29647037      4.80149665      4.33005145 Se
  atom      13.29647037      4.80149665      0.99994855 Se
  atom       9.95999899      6.71231008      2.66500000 Mo
  atom      11.65007439      7.65875906      4.32535638 Se
  atom      11.65007439      7.65875906      1.00464362 Se
  atom       8.28157204      9.57443391      2.66500000 Mo
  atom       9.95997285     10.53326584      4.32208557 Se
  atom       9.95997285     10.53326584      1.00791443 Se
  atom       6.62248944     12.44811496      2.66500000 Mo
  atom       8.29206746     13.42217896      4.32209183 Se
  atom       8.29206746     13.42217896      1.00790817 Se
  #
  # What follows is the current estimated Hessian matrix constructed by the BFGS algorithm.
  # This is NOT the true Hessian matrix of the system.
  # If you do not want this information here, switch it off using the "hessian_to_restart_geometry" keyword.
  #
  
  -----------------------------------------------------------------------
  Completed first pass over input file geometry.in .
  -----------------------------------------------------------------------
  

  Basic array size parameters:
  | Number of species                 :        4
  | Number of atoms                   :       73
  | Number of lattice vectors         :        3
  | Max. basis fn. angular momentum   :        4
  | Max. atomic/ionic basis occupied n:        6
  | Max. number of basis fn. types    :        3
  | Max. radial fns per species/type  :       14
  | Max. logarithmic grid size        :     1483
  | Max. radial integration grid size :      143
  | Max. angular integration grid size:      434
  | Max. angular grid division number :        8
  | Radial grid for Hartree potential :     1483
  | Number of spin channels           :        1
  | Cube type output requested        :        1

------------------------------------------------------------
          Reading file control.in.
------------------------------------------------------------
  XC: Using PBE gradient-corrected functionals.
  Spin treatment: No spin polarisation.
  Charge =   0.000000E+00: Neutral system requested explicitly.
  Scalar relativistic treatment of kinetic energy: on-site free-atom approximation to ZORA.
  Occupation type: Gaussian broadening, width =   0.100000E-01 eV.
  Found k-point grid:         4         4         1
  | STM width in eV:      -1.0000
  | Cube output options:
 * Cube origin was not provided following cube request. Will be using default value.
 * Cube edges were not provided following cube request. Defaults will be used.
 Standard cube format requested.

  Using libMBD for calculating MBD and TS energies
 
  Reading configuration options for species S                   .
  | Found nuclear charge :  16.0000
  | Found atomic mass :    32.0650000000000      amu
  | Found l_max for Hartree potential  :   6
  | Found cutoff potl. onset [A], width [A], scale factor :    4.00000    2.00000    1.00000
  | Threshold for basis-dependent cutoff potential is   0.100000E-03
  | Found data for basic radial integration grid :    44 points, outermost radius =    7.000 A
  | Found multiplier for basic radial grid :   2
  | Found angular grid specification: user-specified.
  | Specified grid contains     5 separate shells.
  | Check grid settings after all constraints further below.
  | Found free-atom valence shell :  3 s   2.000
  | Found free-atom valence shell :  3 p   4.000
  | Found free-ion valence shell :  3 s   1.000
  | Found free-ion valence shell :  3 p   3.000
  | Found ionic basis function :  3 d , default cutoff radius.
  | Found hydrogenic basis function :  2 p   1.800
  | Found hydrogenic basis function :  4 f   7.000
  | Found ionic basis function :  3 s , default cutoff radius.
  | Found hydrogenic basis function :  4 d   6.200
  | Found hydrogenic basis function :  5 g  10.800
  Species S                   : Missing cutoff potential type.
  Defaulting to exp(1/x)/(1-x)^2 type cutoff potential.
  Species S : No 'logarithmic' tag. Using default grid for free atom:
  | Default logarithmic grid data [bohr] : 0.1000E-03 0.1000E+03 0.1012E+01
  | Will include ionic basis functions of  2.0-fold positive S                    ion.
  Species S : On-site basis accuracy parameter (for Gram-Schmidt orthonormalisation) not specified.
  Using default value basis_acc =  0.1000000E-03.
  Species S                   : Using default innermost maximum threshold i_radial=  2 for radial functions.
  Species S                   : Default cutoff onset for free atom density etc. : 0.40000000E+01 AA.
  Species S                   : Basic radial grid will be enhanced according to radial_multiplier =   2, to contain    89 grid points.
 
  Reading configuration options for species Mo                  .
  | Found nuclear charge :  42.0000
  | Found atomic mass :    95.9400000000000      amu
  | Found l_max for Hartree potential  :   6
  | Found cutoff potl. onset [A], width [A], scale factor :    4.00000    2.00000    1.00000
  | Threshold for basis-dependent cutoff potential is   0.100000E-03
  | Found data for basic radial integration grid :    59 points, outermost radius =    7.000 A
  | Found multiplier for basic radial grid :   2
  | Found angular grid specification: user-specified.
  | Specified grid contains     6 separate shells.
  | Check grid settings after all constraints further below.
  | Found free-atom valence shell :  5 s   1.000
  | Found free-atom valence shell :  4 p   6.000
  | Found free-atom valence shell :  4 d   5.000
  | Found free-ion valence shell :  5 s   0.000
  | Found free-ion valence shell :  4 p   6.000
  | Found free-ion valence shell :  4 d   4.000
  | Found hydrogenic basis function :  4 f   8.400
  | Found hydrogenic basis function :  3 d   2.800
  | Found ionic basis function :  5 p , default cutoff radius.
  | Found hydrogenic basis function :  5 g  12.000
  | Found ionic basis function :  5 s , default cutoff radius.
  Species Mo                  : Missing cutoff potential type.
  Defaulting to exp(1/x)/(1-x)^2 type cutoff potential.
  Species Mo: No 'logarithmic' tag. Using default grid for free atom:
  | Default logarithmic grid data [bohr] : 0.1000E-03 0.1000E+03 0.1012E+01
  | Will include ionic basis functions of  2.0-fold positive Mo                   ion.
  Species Mo: On-site basis accuracy parameter (for Gram-Schmidt orthonormalisation) not specified.
  Using default value basis_acc =  0.1000000E-03.
  Species Mo                  : Using default innermost maximum threshold i_radial=  2 for radial functions.
  Species Mo                  : Default cutoff onset for free atom density etc. : 0.40000000E+01 AA.
  Species Mo                  : Basic radial grid will be enhanced according to radial_multiplier =   2, to contain   119 grid points.
 
  Reading configuration options for species W                   .
  | Found nuclear charge :  74.0000
  | Found atomic mass :    183.840000000000      amu
  | Found l_max for Hartree potential  :   6
  | Found cutoff potl. onset [A], width [A], scale factor :    4.00000    2.00000    1.00000
  | Threshold for basis-dependent cutoff potential is   0.100000E-03
  | Found data for basic radial integration grid :    71 points, outermost radius =    7.000 A
  | Found multiplier for basic radial grid :   2
  | Found angular grid specification: user-specified.
  | Specified grid contains     6 separate shells.
  | Check grid settings after all constraints further below.
  | Found free-atom valence shell :  6 s   2.000
  | Found free-atom valence shell :  5 p   6.000
  | Found free-atom valence shell :  5 d   4.000
  | Found free-atom valence shell :  4 f  14.000
  | Found free-ion valence shell :  6 s   1.000
  | Found free-ion valence shell :  5 p   6.000
  | Found free-ion valence shell :  5 d   3.000
  | Found free-ion valence shell :  4 f  14.000
  | Found hydrogenic basis function :  4 f   7.800
  | Found hydrogenic basis function :  4 d   5.800
  | Found ionic basis function :  6 p , default cutoff radius.
  | Found hydrogenic basis function :  5 g  12.400
  | Found ionic basis function :  6 s , default cutoff radius.
  Species W                   : Missing cutoff potential type.
  Defaulting to exp(1/x)/(1-x)^2 type cutoff potential.
  Species W : No 'logarithmic' tag. Using default grid for free atom:
  | Default logarithmic grid data [bohr] : 0.1000E-03 0.1000E+03 0.1012E+01
  | Will include ionic basis functions of  2.0-fold positive W                    ion.
  Species W : On-site basis accuracy parameter (for Gram-Schmidt orthonormalisation) not specified.
  Using default value basis_acc =  0.1000000E-03.
  Species W                   : Using default innermost maximum threshold i_radial=  2 for radial functions.
  Species W                   : Default cutoff onset for free atom density etc. : 0.40000000E+01 AA.
  Species W                   : Basic radial grid will be enhanced according to radial_multiplier =   2, to contain   143 grid points.
 
  Reading configuration options for species Se                  .
  | Found nuclear charge :  34.0000
  | Found atomic mass :    78.9600000000000      amu
  | Found l_max for Hartree potential  :   6
  | Found cutoff potl. onset [A], width [A], scale factor :    4.00000    2.00000    1.00000
  | Threshold for basis-dependent cutoff potential is   0.100000E-03
  | Found data for basic radial integration grid :    55 points, outermost radius =    7.000 A
  | Found multiplier for basic radial grid :   2
  | Found angular grid specification: user-specified.
  | Specified grid contains     5 separate shells.
  | Check grid settings after all constraints further below.
  | Found free-atom valence shell :  4 s   2.000
  | Found free-atom valence shell :  4 p   4.000
  | Found free-atom valence shell :  3 d  10.000
  | Found free-ion valence shell :  4 s   1.000
  | Found free-ion valence shell :  4 p   3.000
  | Found free-ion valence shell :  3 d  10.000
  | Found hydrogenic basis function :  3 d   4.300
  | Found hydrogenic basis function :  2 p   1.600
  | Found hydrogenic basis function :  4 f   7.200
  | Found ionic basis function :  4 s , default cutoff radius.
  Species Se                  : Missing cutoff potential type.
  Defaulting to exp(1/x)/(1-x)^2 type cutoff potential.
  Species Se: No 'logarithmic' tag. Using default grid for free atom:
  | Default logarithmic grid data [bohr] : 0.1000E-03 0.1000E+03 0.1012E+01
  | Will include ionic basis functions of  2.0-fold positive Se                   ion.
  Species Se: On-site basis accuracy parameter (for Gram-Schmidt orthonormalisation) not specified.
  Using default value basis_acc =  0.1000000E-03.
  Species Se                  : Using default innermost maximum threshold i_radial=  2 for radial functions.
  Species Se                  : Default cutoff onset for free atom density etc. : 0.40000000E+01 AA.
  Species Se                  : Basic radial grid will be enhanced according to radial_multiplier =   2, to contain   111 grid points.
 
  Finished reading input file 'control.in'.
 
------------------------------------------------------------


------------------------------------------------------------
          Reading geometry description geometry.in.
------------------------------------------------------------
  | The smallest distance between any two atoms is         2.52357064 AA.
  | The first atom of this pair is atom number                     36 .
  | The second atom of this pair is atom number                    53 .
  | Wigner-Seitz cell of the first atom image           0     0     0 .
  | (The Wigner-Seitz cell of the second atom is 0 0 0  by definition.)

  Symmetry information by spglib:
  | Precision set to  0.1E-04
  | Number of Operations  : 2
  | Space group           : 6
  | International         : Pm C
  | Schoenflies           : Cs^1
  Input structure read successfully.
  The structure contains       73 atoms,  and a total of       2682.000 electrons.

  Input geometry:
  | Unit cell:
  |       16.60000000        0.00000000        0.00000000
  |       -8.30000000       14.37602170        0.00000000
  |        0.00000000        0.00000000      100.00000000
  | Atomic structure:
  |       Atom                x [A]            y [A]            z [A]
  |    1: Species Mo            0.00090506        0.97908061        2.66500000
  |    2: Species Se            1.66000885        1.95534901        4.32310273
  |    3: Species Se            1.66000885        1.95534901        1.00689727
  |    4: Species Mo           -1.63457637        3.88084640        2.66500000
  |    5: Species Se            0.05488617        4.92663475        4.31936942
  |    6: Species Se            0.05488617        4.92663475        1.01063058
  |    7: Species Mo           -3.26633088        6.70718588        2.66500000
  |    8: Species Se           -1.51589447        7.64733998        4.31939048
  |    9: Species Se           -1.51589447        7.64733998        1.01060952
  |   10: Species Mo           -4.96165838        9.57439496        2.66500000
  |   11: Species Se           -3.28657937       10.52310862        4.32308788
  |   12: Species Se           -3.28657937       10.52310862        1.00691212
  |   13: Species Mo           -6.64003621       12.45919919        2.66500000
  |   14: Species Se           -4.97209766       13.42214953        4.32208387
  |   15: Species Se           -4.97209766       13.42214953        1.00791613
  |   16: Species Mo            3.31913963        0.97906448        2.66500000
  |   17: Species Se            4.97229983        1.94702293        4.32536271
  |   18: Species Se            4.97229983        1.94702293        1.00463729
  |   19: Species Mo            1.66007231        3.89953599        2.66500000
  |   20: Species Se            3.26523659        4.92663582        4.31937150
  |   21: Species Se            3.26523659        4.92663582        1.01062850
  |   22: Species Mo            0.23377928        6.84376622        2.66500000
  |   23: Species Mo           -1.60281384        9.55099543        2.66500000
  |   24: Species Se            0.08921344       10.42763991        4.31938022
  |   25: Species Se            0.08921344       10.42763991        1.01061978
  |   26: Species Mo           -3.30249650       12.44810360        2.66500000
  |   27: Species Se           -1.63765121       13.39581082        4.32535735
  |   28: Species Se           -1.63765121       13.39581082        1.00464265
  |   29: Species Mo            6.63699491        0.95665054        2.66500000
  |   30: Species Se            8.29699491        1.91508346        4.32803431
  |   31: Species Se            8.29699491        1.91508346        1.00196569
  |   32: Species Mo            4.95463759        3.88079991        2.66500000
  |   33: Species Se            6.62359191        4.80149386        4.33004614
  |   34: Species Se            6.62359191        4.80149386        0.99995386
  |   35: Species Mo            3.08621130        6.84376407        2.66500000
  |   36: Species Se            4.83587625        7.64737432        4.31939379
  |   37: Species Se            4.83587625        7.64737432        1.01060621
  |   38: Species Mo            1.65994974        9.31408876        2.66500000
  |   39: Species Se            3.23069092       10.42764837        4.31938578
  |   40: Species Se            3.23069092       10.42764837        1.01061422
  |   41: Species Mo            0.02825712       12.41360941        2.66500000
  |   42: Species Se            1.65998596       13.39874541        4.33005960
  |   43: Species Se            1.65998596       13.39874541        0.99994040
  |   44: Species Mo            9.96001909        0.94977212        2.66500000
  |   45: Species Se           11.62305256        1.91509418        4.32804123
  |   46: Species Se           11.62305256        1.91509418        1.00195877
  |   47: Species Mo            8.29249609        3.83796974        2.66500000
  |   48: Species Se            9.96002818        4.79551104        4.32803740
  |   49: Species Se            9.96002818        4.79551104        1.00196260
  |   50: Species Mo            6.58632023        6.70719575        2.66500000
  |   51: Species Se            8.26990836        7.65877757        4.32535235
  |   52: Species Se            8.26990836        7.65877757        1.00464765
  |   53: Species Mo            4.92271454        9.55101532        2.66500000
  |   54: Species Se            6.60650242       10.52312567        4.32308451
  |   55: Species Se            6.60650242       10.52312567        1.00691549
  |   56: Species Mo            3.29171921       12.41363472        2.66500000
  |   57: Species Se            4.95763848       13.39582784        4.32534815
  |   58: Species Se            4.95763848       13.39582784        1.00465185
  |   59: Species Mo           13.28301261        0.95667575        2.66500000
  |   60: Species Se           14.94776059        1.94704014        4.32535491
  |   61: Species Se           14.94776059        1.94704014        1.00464509
  |   62: Species Mo           11.62754743        3.83797351        2.66500000
  |   63: Species Se           13.29647037        4.80149665        4.33005145
  |   64: Species Se           13.29647037        4.80149665        0.99994855
  |   65: Species Mo            9.95999899        6.71231008        2.66500000
  |   66: Species Se           11.65007439        7.65875906        4.32535638
  |   67: Species Se           11.65007439        7.65875906        1.00464362
  |   68: Species Mo            8.28157204        9.57443391        2.66500000
  |   69: Species Se            9.95997285       10.53326584        4.32208557
  |   70: Species Se            9.95997285       10.53326584        1.00791443
  |   71: Species Mo            6.62248944       12.44811496        2.66500000
  |   72: Species Se            8.29206746       13.42217896        4.32209183
  |   73: Species Se            8.29206746       13.42217896        1.00790817

  Lattice parameters for 3D lattice (in Angstroms) :    16.600000   16.600000  100.000000
  Angle(s) between unit vectors (in degrees)       :    90.000000   90.000000  120.000000


  Quantities derived from the lattice vectors:
  | Reciprocal lattice vector 1:  0.378505  0.218530  0.000000
  | Reciprocal lattice vector 2: -0.000000  0.437060  0.000000
  | Reciprocal lattice vector 3:  0.000000  0.000000  0.062832
  | Unit cell volume                               :   0.238642E+05  A^3

  Fractional coordinates:
                         L1                L2                L3
       atom_frac         0.03410708        0.06810511        0.02665000  Mo
       atom_frac         0.16800784        0.13601461        0.04323103  Se
       atom_frac         0.16800784        0.13601461        0.01006897  Se
       atom_frac         0.03650791        0.26995274        0.02665000  Mo
       atom_frac         0.17465543        0.34269806        0.04319369  Se
       atom_frac         0.17465543        0.34269806        0.01010631  Se
       atom_frac         0.03650992        0.46655368        0.02665000  Mo
       atom_frac         0.17465659        0.53195106        0.04319390  Se
       atom_frac         0.17465659        0.53195106        0.01010610  Se
       atom_frac         0.03410368        0.66599753        0.02665000  Mo
       atom_frac         0.16800845        0.73199031        0.04323088  Se
       atom_frac         0.16800845        0.73199031        0.01006912  Se
       atom_frac         0.03333047        0.86666530        0.02665000  Mo
       atom_frac         0.16730024        0.93364839        0.04322084  Se
       atom_frac         0.16730024        0.93364839        0.01007916  Se
       atom_frac         0.23400017        0.06810399        0.02665000  Mo
       atom_frac         0.36725386        0.13543545        0.04325363  Se
       atom_frac         0.36725386        0.13543545        0.01004637  Se
       atom_frac         0.23563075        0.27125279        0.02665000  Mo
       atom_frac         0.36805007        0.34269813        0.04319371  Se
       atom_frac         0.36805007        0.34269813        0.01010628  Se
       atom_frac         0.25211021        0.47605425        0.02665000  Mo
       atom_frac         0.23562988        0.66436985        0.02665000  Mo
       atom_frac         0.36804905        0.72534948        0.04319380  Se
       atom_frac         0.36804905        0.72534948        0.01010620  Se
       atom_frac         0.23400117        0.86589349        0.02665000  Mo
       atom_frac         0.36725444        0.93181626        0.04325357  Se
       atom_frac         0.36725444        0.93181626        0.01004643  Se
       atom_frac         0.43309141        0.06654487        0.02665000  Mo
       atom_frac         0.56642584        0.13321373        0.04328034  Se
       atom_frac         0.56642584        0.13321373        0.01001966  Se
       atom_frac         0.43344690        0.26994950        0.02665000  Mo
       atom_frac         0.56600817        0.33399323        0.04330046  Se
       atom_frac         0.56600817        0.33399323        0.00999954  Se
       atom_frac         0.42394339        0.47605410        0.02665000  Mo
       atom_frac         0.55729457        0.53195345        0.04319394  Se
       atom_frac         0.55729457        0.53195345        0.01010606  Se
       atom_frac         0.42394225        0.64789056        0.02665000  Mo
       atom_frac         0.55729497        0.72535007        0.04319386  Se
       atom_frac         0.55729497        0.72535007        0.01010614  Se
       atom_frac         0.43344927        0.86349406        0.02665000  Mo
       atom_frac         0.56600935        0.93202039        0.04330060  Se
       atom_frac         0.56600935        0.93202039        0.00999940  Se
       atom_frac         0.63303435        0.06606641        0.02665000  Mo
       atom_frac         0.76679113        0.13321447        0.04328041  Se
       atom_frac         0.76679113        0.13321447        0.01001959  Se
       atom_frac         0.63303307        0.26697022        0.02665000  Mo
       atom_frac         0.76679023        0.33357706        0.04328037  Se
       atom_frac         0.76679023        0.33357706        0.01001963  Se
       atom_frac         0.63004346        0.46655437        0.02665000  Mo
       atom_frac         0.76456058        0.53274666        0.04325352  Se
       atom_frac         0.76456058        0.53274666        0.01004648  Se
       atom_frac         0.62873469        0.66437124        0.02665000  Mo
       atom_frac         0.76397782        0.73199150        0.04323085  Se
       atom_frac         0.76397782        0.73199150        0.01006915  Se
       atom_frac         0.63004425        0.86349583        0.02665000  Mo
       atom_frac         0.76456164        0.93181745        0.04325348  Se
       atom_frac         0.76456164        0.93181745        0.01004652  Se
       atom_frac         0.83345480        0.06654663        0.02665000  Mo
       atom_frac         0.96818583        0.13543664        0.04325355  Se
       atom_frac         0.96818583        0.13543664        0.01004645  Se
       atom_frac         0.83393991        0.26697049        0.02665000  Mo
       atom_frac         0.96798890        0.33399342        0.04330051  Se
       atom_frac         0.96798890        0.33399342        0.00999949  Se
       atom_frac         0.83345500        0.46691012        0.02665000  Mo
       atom_frac         0.96818440        0.53274537        0.04325356  Se
       atom_frac         0.96818440        0.53274537        0.01004644  Se
       atom_frac         0.83189000        0.66600024        0.02665000  Mo
       atom_frac         0.96634679        0.73269685        0.04322086  Se
       atom_frac         0.96634679        0.73269685        0.01007914  Se
       atom_frac         0.83189229        0.86589428        0.02665000  Mo
       atom_frac         0.96634736        0.93365044        0.04322092  Se
       atom_frac         0.96634736        0.93365044        0.01007908  Se

 
  Finished reading input file 'control.in'.
 

------------------------------------------------------------
          Reading geometry description geometry.in.
------------------------------------------------------------
 
  Consistency checks for stacksize environment parameter are next.
 
  | Maximum stacksize for task 0: unlimited
  | Maximum stacksize for task 1: unlimited
  | Maximum stacksize for task 2: unlimited
  | Maximum stacksize for task 3: unlimited
  | Maximum stacksize for task 4: unlimited
  | Maximum stacksize for task 5: unlimited
  | Maximum stacksize for task 6: unlimited
  | Maximum stacksize for task 7: unlimited
  | Maximum stacksize for task 8: unlimited
  | Maximum stacksize for task 9: unlimited
  | Maximum stacksize for task 10: unlimited
  | Maximum stacksize for task 11: unlimited
  | Maximum stacksize for task 12: unlimited
  | Maximum stacksize for task 13: unlimited
  | Maximum stacksize for task 14: unlimited
  | Maximum stacksize for task 15: unlimited
  | Maximum stacksize for task 16: unlimited
  | Maximum stacksize for task 17: unlimited
  | Maximum stacksize for task 18: unlimited
  | Maximum stacksize for task 19: unlimited
  | Maximum stacksize for task 20: unlimited
  | Maximum stacksize for task 21: unlimited
  | Maximum stacksize for task 22: unlimited
  | Maximum stacksize for task 23: unlimited
  | Maximum stacksize for task 24: unlimited
  | Maximum stacksize for task 25: unlimited
  | Maximum stacksize for task 26: unlimited
  | Maximum stacksize for task 27: unlimited
  | Maximum stacksize for task 28: unlimited
  | Maximum stacksize for task 29: unlimited
  | Maximum stacksize for task 30: unlimited
  | Maximum stacksize for task 31: unlimited
  | Maximum stacksize for task 32: unlimited
  | Maximum stacksize for task 33: unlimited
  | Maximum stacksize for task 34: unlimited
  | Maximum stacksize for task 35: unlimited
  | Maximum stacksize for task 36: unlimited
  | Maximum stacksize for task 37: unlimited
  | Maximum stacksize for task 38: unlimited
  | Maximum stacksize for task 39: unlimited
  | Maximum stacksize for task 40: unlimited
  | Maximum stacksize for task 41: unlimited
  | Maximum stacksize for task 42: unlimited
  | Maximum stacksize for task 43: unlimited
  | Maximum stacksize for task 44: unlimited
  | Maximum stacksize for task 45: unlimited
  | Maximum stacksize for task 46: unlimited
  | Maximum stacksize for task 47: unlimited
  | Maximum stacksize for task 48: unlimited
  | Maximum stacksize for task 49: unlimited
  | Maximum stacksize for task 50: unlimited
  | Maximum stacksize for task 51: unlimited
  | Maximum stacksize for task 52: unlimited
  | Maximum stacksize for task 53: unlimited
  | Maximum stacksize for task 54: unlimited
  | Maximum stacksize for task 55: unlimited
  | Maximum stacksize for task 56: unlimited
  | Maximum stacksize for task 57: unlimited
  | Maximum stacksize for task 58: unlimited
  | Maximum stacksize for task 59: unlimited
  | Maximum stacksize for task 60: unlimited
  | Maximum stacksize for task 61: unlimited
  | Maximum stacksize for task 62: unlimited
  | Maximum stacksize for task 63: unlimited
  | Maximum stacksize for task 64: unlimited
  | Maximum stacksize for task 65: unlimited
  | Maximum stacksize for task 66: unlimited
  | Maximum stacksize for task 67: unlimited
  | Maximum stacksize for task 68: unlimited
  | Maximum stacksize for task 69: unlimited
  | Maximum stacksize for task 70: unlimited
  | Maximum stacksize for task 71: unlimited
  | Maximum stacksize for task 72: unlimited
  | Maximum stacksize for task 73: unlimited
  | Maximum stacksize for task 74: unlimited
  | Maximum stacksize for task 75: unlimited
  | Maximum stacksize for task 76: unlimited
  | Maximum stacksize for task 77: unlimited
  | Maximum stacksize for task 78: unlimited
  | Maximum stacksize for task 79: unlimited
  | Maximum stacksize for task 80: unlimited
  | Maximum stacksize for task 81: unlimited
  | Maximum stacksize for task 82: unlimited
  | Maximum stacksize for task 83: unlimited
  | Maximum stacksize for task 84: unlimited
  | Maximum stacksize for task 85: unlimited
  | Maximum stacksize for task 86: unlimited
  | Maximum stacksize for task 87: unlimited
  | Maximum stacksize for task 88: unlimited
  | Maximum stacksize for task 89: unlimited
  | Maximum stacksize for task 90: unlimited
  | Maximum stacksize for task 91: unlimited
  | Maximum stacksize for task 92: unlimited
  | Maximum stacksize for task 93: unlimited
  | Maximum stacksize for task 94: unlimited
  | Maximum stacksize for task 95: unlimited
  | Maximum stacksize for task 96: unlimited
  | Maximum stacksize for task 97: unlimited
  | Maximum stacksize for task 98: unlimited
  | Maximum stacksize for task 99: unlimited
  | Maximum stacksize for task 100: unlimited
  | Maximum stacksize for task 101: unlimited
  | Maximum stacksize for task 102: unlimited
  | Maximum stacksize for task 103: unlimited
  | Maximum stacksize for task 104: unlimited
  | Maximum stacksize for task 105: unlimited
  | Maximum stacksize for task 106: unlimited
  | Maximum stacksize for task 107: unlimited
  | Maximum stacksize for task 108: unlimited
  | Maximum stacksize for task 109: unlimited
  | Maximum stacksize for task 110: unlimited
  | Maximum stacksize for task 111: unlimited
  | Maximum stacksize for task 112: unlimited
  | Maximum stacksize for task 113: unlimited
  | Maximum stacksize for task 114: unlimited
  | Maximum stacksize for task 115: unlimited
  | Maximum stacksize for task 116: unlimited
  | Maximum stacksize for task 117: unlimited
  | Maximum stacksize for task 118: unlimited
  | Maximum stacksize for task 119: unlimited
  | Maximum stacksize for task 120: unlimited
  | Maximum stacksize for task 121: unlimited
  | Maximum stacksize for task 122: unlimited
  | Maximum stacksize for task 123: unlimited
  | Maximum stacksize for task 124: unlimited
  | Maximum stacksize for task 125: unlimited
  | Maximum stacksize for task 126: unlimited
  | Maximum stacksize for task 127: unlimited
  | Maximum stacksize for task 128: unlimited
  | Maximum stacksize for task 129: unlimited
  | Maximum stacksize for task 130: unlimited
  | Maximum stacksize for task 131: unlimited
  | Maximum stacksize for task 132: unlimited
  | Maximum stacksize for task 133: unlimited
  | Maximum stacksize for task 134: unlimited
  | Maximum stacksize for task 135: unlimited
  | Maximum stacksize for task 136: unlimited
  | Maximum stacksize for task 137: unlimited
  | Maximum stacksize for task 138: unlimited
  | Maximum stacksize for task 139: unlimited
  | Maximum stacksize for task 140: unlimited
  | Maximum stacksize for task 141: unlimited
  | Maximum stacksize for task 142: unlimited
  | Maximum stacksize for task 143: unlimited
  | Maximum stacksize for task 144: unlimited
  | Maximum stacksize for task 145: unlimited
  | Maximum stacksize for task 146: unlimited
  | Maximum stacksize for task 147: unlimited
  | Maximum stacksize for task 148: unlimited
  | Maximum stacksize for task 149: unlimited
  | Maximum stacksize for task 150: unlimited
  | Maximum stacksize for task 151: unlimited
  | Maximum stacksize for task 152: unlimited
  | Maximum stacksize for task 153: unlimited
  | Maximum stacksize for task 154: unlimited
  | Maximum stacksize for task 155: unlimited
  | Maximum stacksize for task 156: unlimited
  | Maximum stacksize for task 157: unlimited
  | Maximum stacksize for task 158: unlimited
  | Maximum stacksize for task 159: unlimited
  | Current stacksize for task 0: unlimited
  | Current stacksize for task 1: unlimited
  | Current stacksize for task 2: unlimited
  | Current stacksize for task 3: unlimited
  | Current stacksize for task 4: unlimited
  | Current stacksize for task 5: unlimited
  | Current stacksize for task 6: unlimited
  | Current stacksize for task 7: unlimited
  | Current stacksize for task 8: unlimited
  | Current stacksize for task 9: unlimited
  | Current stacksize for task 10: unlimited
  | Current stacksize for task 11: unlimited
  | Current stacksize for task 12: unlimited
  | Current stacksize for task 13: unlimited
  | Current stacksize for task 14: unlimited
  | Current stacksize for task 15: unlimited
  | Current stacksize for task 16: unlimited
  | Current stacksize for task 17: unlimited
  | Current stacksize for task 18: unlimited
  | Current stacksize for task 19: unlimited
  | Current stacksize for task 20: unlimited
  | Current stacksize for task 21: unlimited
  | Current stacksize for task 22: unlimited
  | Current stacksize for task 23: unlimited
  | Current stacksize for task 24: unlimited
  | Current stacksize for task 25: unlimited
  | Current stacksize for task 26: unlimited
  | Current stacksize for task 27: unlimited
  | Current stacksize for task 28: unlimited
  | Current stacksize for task 29: unlimited
  | Current stacksize for task 30: unlimited
  | Current stacksize for task 31: unlimited
  | Current stacksize for task 32: unlimited
  | Current stacksize for task 33: unlimited
  | Current stacksize for task 34: unlimited
  | Current stacksize for task 35: unlimited
  | Current stacksize for task 36: unlimited
  | Current stacksize for task 37: unlimited
  | Current stacksize for task 38: unlimited
  | Current stacksize for task 39: unlimited
  | Current stacksize for task 40: unlimited
  | Current stacksize for task 41: unlimited
  | Current stacksize for task 42: unlimited
  | Current stacksize for task 43: unlimited
  | Current stacksize for task 44: unlimited
  | Current stacksize for task 45: unlimited
  | Current stacksize for task 46: unlimited
  | Current stacksize for task 47: unlimited
  | Current stacksize for task 48: unlimited
  | Current stacksize for task 49: unlimited
  | Current stacksize for task 50: unlimited
  | Current stacksize for task 51: unlimited
  | Current stacksize for task 52: unlimited
  | Current stacksize for task 53: unlimited
  | Current stacksize for task 54: unlimited
  | Current stacksize for task 55: unlimited
  | Current stacksize for task 56: unlimited
  | Current stacksize for task 57: unlimited
  | Current stacksize for task 58: unlimited
  | Current stacksize for task 59: unlimited
  | Current stacksize for task 60: unlimited
  | Current stacksize for task 61: unlimited
  | Current stacksize for task 62: unlimited
  | Current stacksize for task 63: unlimited
  | Current stacksize for task 64: unlimited
  | Current stacksize for task 65: unlimited
  | Current stacksize for task 66: unlimited
  | Current stacksize for task 67: unlimited
  | Current stacksize for task 68: unlimited
  | Current stacksize for task 69: unlimited
  | Current stacksize for task 70: unlimited
  | Current stacksize for task 71: unlimited
  | Current stacksize for task 72: unlimited
  | Current stacksize for task 73: unlimited
  | Current stacksize for task 74: unlimited
  | Current stacksize for task 75: unlimited
  | Current stacksize for task 76: unlimited
  | Current stacksize for task 77: unlimited
  | Current stacksize for task 78: unlimited
  | Current stacksize for task 79: unlimited
  | Current stacksize for task 80: unlimited
  | Current stacksize for task 81: unlimited
  | Current stacksize for task 82: unlimited
  | Current stacksize for task 83: unlimited
  | Current stacksize for task 84: unlimited
  | Current stacksize for task 85: unlimited
  | Current stacksize for task 86: unlimited
  | Current stacksize for task 87: unlimited
  | Current stacksize for task 88: unlimited
  | Current stacksize for task 89: unlimited
  | Current stacksize for task 90: unlimited
  | Current stacksize for task 91: unlimited
  | Current stacksize for task 92: unlimited
  | Current stacksize for task 93: unlimited
  | Current stacksize for task 94: unlimited
  | Current stacksize for task 95: unlimited
  | Current stacksize for task 96: unlimited
  | Current stacksize for task 97: unlimited
  | Current stacksize for task 98: unlimited
  | Current stacksize for task 99: unlimited
  | Current stacksize for task 100: unlimited
  | Current stacksize for task 101: unlimited
  | Current stacksize for task 102: unlimited
  | Current stacksize for task 103: unlimited
  | Current stacksize for task 104: unlimited
  | Current stacksize for task 105: unlimited
  | Current stacksize for task 106: unlimited
  | Current stacksize for task 107: unlimited
  | Current stacksize for task 108: unlimited
  | Current stacksize for task 109: unlimited
  | Current stacksize for task 110: unlimited
  | Current stacksize for task 111: unlimited
  | Current stacksize for task 112: unlimited
  | Current stacksize for task 113: unlimited
  | Current stacksize for task 114: unlimited
  | Current stacksize for task 115: unlimited
  | Current stacksize for task 116: unlimited
  | Current stacksize for task 117: unlimited
  | Current stacksize for task 118: unlimited
  | Current stacksize for task 119: unlimited
  | Current stacksize for task 120: unlimited
  | Current stacksize for task 121: unlimited
  | Current stacksize for task 122: unlimited
  | Current stacksize for task 123: unlimited
  | Current stacksize for task 124: unlimited
  | Current stacksize for task 125: unlimited
  | Current stacksize for task 126: unlimited
  | Current stacksize for task 127: unlimited
  | Current stacksize for task 128: unlimited
  | Current stacksize for task 129: unlimited
  | Current stacksize for task 130: unlimited
  | Current stacksize for task 131: unlimited
  | Current stacksize for task 132: unlimited
  | Current stacksize for task 133: unlimited
  | Current stacksize for task 134: unlimited
  | Current stacksize for task 135: unlimited
  | Current stacksize for task 136: unlimited
  | Current stacksize for task 137: unlimited
  | Current stacksize for task 138: unlimited
  | Current stacksize for task 139: unlimited
  | Current stacksize for task 140: unlimited
  | Current stacksize for task 141: unlimited
  | Current stacksize for task 142: unlimited
  | Current stacksize for task 143: unlimited
  | Current stacksize for task 144: unlimited
  | Current stacksize for task 145: unlimited
  | Current stacksize for task 146: unlimited
  | Current stacksize for task 147: unlimited
  | Current stacksize for task 148: unlimited
  | Current stacksize for task 149: unlimited
  | Current stacksize for task 150: unlimited
  | Current stacksize for task 151: unlimited
  | Current stacksize for task 152: unlimited
  | Current stacksize for task 153: unlimited
  | Current stacksize for task 154: unlimited
  | Current stacksize for task 155: unlimited
  | Current stacksize for task 156: unlimited
  | Current stacksize for task 157: unlimited
  | Current stacksize for task 158: unlimited
  | Current stacksize for task 159: unlimited
 
  Consistency checks for the contents of control.in are next.
 
  MPI_IN_PLACE appears to work with this MPI implementation.
  | Keeping use_mpi_in_place .true. (see manual).
  Target number of points in a grid batch is not set. Defaulting to  100
  Method for grid partitioning is not set. Defaulting to parallel hash+maxmin partitioning.
  Batch size limit is not set. Defaulting to    200
  By default, will store active basis functions for each batch.
  If in need of memory, prune_basis_once .false. can be used to disable this option.
  communication_type for Hartree potential was not specified.
  Defaulting to calc_hartree .
  Defaulting to Pulay charge density mixer.
  Pulay mixer: Number of relevant iterations not set.
  Defaulting to    8 iterations.
  Pulay mixer: Number of initial linear mixing iterations not set.
  Defaulting to    0 iterations.
  Work space size for distributed Hartree potential not set.
  Defaulting to   0.200000E+03 MB.
  Mixing parameter for charge density mixing has not been set.
  Using default: charge_mix_param =     0.0500.
  The mixing parameter will be adjusted in iteration number     2 of the first full s.c.f. cycle only.
  Algorithm-dependent basis array size parameters:
  | n_max_pulay                         :        8
  Maximum number of self-consistency iterations not provided.
  Presetting  1000 iterations.
  Presetting      1001 iterations before the initial mixing cycle
  is restarted anyway using the sc_init_iter criterion / keyword.
  Presetting a factor      1.000 between actual scf density residual
  and density convergence criterion sc_accuracy_rho below which sc_init_iter
  takes no effect.
 * No s.c.f. convergence criteria (sc_accuracy_*) were provided in control.in.
 * The run will proceed with a reasonable default guess, but please check whether.
 * the s.c.f. cycles seem to take too much or too little time.
  Calculation of forces was not defined in control.in. No forces will be calculated.
  Geometry relaxation not requested: no relaxation will be performed.
 * Notice: The s.c.f. convergence criterion sc_accuracy_rho was not provided.
 * We used to stop in this case, and ask the user to provide reasonable
 * scf convergence criteria. However, this led some users to employ criteria
 * that led to extremely long run times, e.g., for simple relaxation.
 * We now preset a default value for sc_accuracy_rho if it is not set.
 * You may still wish to check if this setting is too tight or too loose for your needs.
 * Based on n_atoms, FHI-aims chose sc_accuracy_rho =  0.121667E-04 .
  No accuracy limit for integral partition fn. given. Defaulting to  0.1000E-14.
  No threshold value for u(r) in integrations given. Defaulting to  0.1000E-05.
  No accuracy for occupation numbers given. Defaulting to  0.1000E-12.
  No threshold value for occupation numbers given. Defaulting to  0.0000E+00.
  No accuracy for fermi level given. Defaulting to  0.1000E-19.
  Maximum # of iterations to find E_F not set. Defaulting to  200.
  Preferred method for the eigenvalue solver ('KS_method') not specified in 'control.in'.
  Calling BLACS routine to test compilation state
  Since ScaLAPACK support is enabled, defaulting to ELPA (via ELSI).
  Will not use alltoall communication since running on < 1024 CPUs.
  Threshold for basis singularities not set.
  Default threshold for basis singularities:  0.1000E-04
  partition_type (choice of integration weights) for integrals was not specified.
  | Using a version of the partition function of Stratmann and coworkers ('stratmann_sparse').
  | At each grid point, the set of atoms used to build the partition table is smoothly restricted to
  | only those atoms whose free-atom density would be non-zero at that grid point.
  Partitioning for Hartree potential was not defined. Using partition_type for integrals.
  | Adjusted default value of keyword multip_moments_threshold to:       0.10000000E-11
  | This value may affect high angular momentum components of the Hartree potential in periodic systems.
  Angular momentum expansion for Kerker preconditioner not set explicitly.
  | Using default value of   0
  No explicit requirement for turning off preconditioner.
  | By default, it will be turned off when the charge convergence reaches
  | sc_accuracy_rho  =   0.121667E-04
  No special mixing parameter while Kerker preconditioner is on.
  Using default: charge_mix_param =     0.0500.
  No q(lm)/r^(l+1) cutoff set for long-range Hartree potential.
  | Using default value of  0.100000E-09 .
  | Verify using the multipole_threshold keyword.
  Defaulting to new monopole extrapolation.
  Density update method: automatic selection selected.
  Using density matrix based charge density update.
  Using density matrix based charge density update.
  Using packed matrix style: index .
  Defaulting to use time-reversal symmetry for k-point grid.
  Charge integration errors on the 3D integration grid will be compensated
  by explicit normalization and distribution of residual charges.
  Use the "compensate_multipole_errors" flag to change this behaviour.
  * Volumetric cube output requested. Tightening default wave_threshold to 1d-8
 
  Consistency checks for the contents of geometry.in are next.
 

  Range separation radius for Ewald summation (hartree_convergence_parameter):      5.00000000 bohr.
  Number of empty states per atom not set in control.in - providing a guess from actual geometry.
  | Total number of empty states used during s.c.f. cycle:      402
  If you use a very high smearing, use empty_states (per atom!) in control.in to increase this value.

  Structure-dependent array size parameters: 
  | Maximum number of distinct radial functions  :       57
  | Maximum number of basis functions            :     2857
  | Number of Kohn-Sham states (occupied + empty):     1743
------------------------------------------------------------

------------------------------------------------------------
          Preparing all fixed parts of the calculation.
------------------------------------------------------------
  Determining machine precision:
    2.225073858507201E-308
  Setting up grids for atomic and cluster calculations.

  Creating wave function, potential, and density for free atoms.

  Species: S

  List of occupied orbitals and eigenvalues:
    n    l              occ      energy [Ha]    energy [eV]
    1    0           2.0000       -88.680731     -2413.1255
    2    0           2.0000        -7.781719      -211.7513
    3    0           2.0000        -0.633662       -17.2428
    2    1           6.0000        -5.751976      -156.5192
    3    1           4.0000        -0.257086        -6.9957


  Species: Mo

  List of occupied orbitals and eigenvalues:
    n    l              occ      energy [Ha]    energy [eV]
    1    0           2.0000      -745.344654    -20281.8600
    2    0           2.0000      -103.288246     -2810.6162
    3    0           2.0000       -17.516687      -476.6533
    4    0           2.0000        -2.358559       -64.1796
    5    0           1.0000        -0.145159        -3.9500
    2    1           6.0000       -92.308627     -2511.8455
    3    1           6.0000       -13.936005      -379.2180
    4    1           6.0000        -1.408138       -38.3174
    3    2          10.0000        -8.119011      -220.9295
    4    2           5.0000        -0.132984        -3.6187


  Species: W

  List of occupied orbitals and eigenvalues:
    n    l              occ      energy [Ha]    energy [eV]
    1    0           2.0000     -2764.899999    -75236.7570
    2    0           2.0000      -447.822848    -12185.8797
    3    0           2.0000      -101.923634     -2773.4832
    4    0           2.0000       -20.945301      -569.9506
    5    0           2.0000        -2.899582       -78.9016
    6    0           2.0000        -0.207066        -5.6345
    2    1           6.0000      -391.021390    -10640.2334
    3    1           6.0000       -85.417793     -2324.3364
    4    1           6.0000       -15.562838      -423.4864
    5    1           6.0000        -1.582233       -43.0547
    3    2          10.0000       -66.517936     -1810.0451
    4    2          10.0000        -8.758436      -238.3292
    5    2           4.0000        -0.161873        -4.4048
    4    3          14.0000        -1.221948       -33.2509


  Species: Se

  List of occupied orbitals and eigenvalues:
    n    l              occ      energy [Ha]    energy [eV]
    1    0           2.0000      -466.337810    -12689.6975
    2    0           2.0000       -59.202598     -1610.9847
    3    0           2.0000        -7.847116      -213.5309
    4    0           2.0000        -0.634372       -17.2621
    2    1           6.0000       -52.061107     -1416.6548
    3    1           6.0000        -5.620941      -152.9536
    4    1           4.0000        -0.238469        -6.4891
    3    2          10.0000        -1.951949       -53.1152


  Adding cutoff potential to free-atom effective potential.
  Creating fixed part of basis set: Ionic, confined, hydrogenic.
 
  S                    ion:

  List of free ionic orbitals and eigenvalues:
    n    l      energy [Ha]    energy [eV]
    1    0       -89.703778     -2440.9640
    2    0        -8.775428      -238.7916
    3    0        -1.470343       -40.0101
    2    1        -6.747660      -183.6132
    3    1        -1.048627       -28.5346


  List of ionic basis orbitals and eigenvalues:
    n    l      energy [Ha]    energy [eV]    outer radius [A]
    3    2        -0.495605       -13.4861       5.587574
    3    0        -1.470336       -40.0099       4.166788

 
  S                    hydrogenic:
 
  List of hydrogenic basis orbitals: 
    n    l      effective z      eigenvalue [eV]  inner max. [A]     outer max. [A]     outer radius [A]   
    2    1         1.800000       -11.0118           1.168531           1.168531           5.587574
    4    3         7.000000       -41.6672           1.212182           1.212182           5.256262
    4    2         6.200000       -32.6848           0.582121           1.814567           5.587574
    5    4        10.800000       -63.4785           1.227092           1.227092           4.944596
 
 
  Mo                   ion:

  List of free ionic orbitals and eigenvalues:
    n    l      energy [Ha]    energy [eV]
    1    0      -746.048685    -20301.0176
    2    0      -103.980912     -2829.4646
    3    0       -18.206601      -495.4268
    4    0        -3.040545       -82.7374
    2    1       -93.001013     -2530.6863
    3    1       -14.625827      -397.9890
    4    1        -2.084855       -56.7318
    3    2        -8.808854      -239.7011
    4    2        -0.765435       -20.8285


  List of ionic basis orbitals and eigenvalues:
    n    l      energy [Ha]    energy [eV]    outer radius [A]
    5    1        -0.465587       -12.6693       5.591446
    5    0        -0.650331       -17.6964       5.591446

 
  Mo                   hydrogenic:
 
  List of hydrogenic basis orbitals: 
    n    l      effective z      eigenvalue [eV]  inner max. [A]     outer max. [A]     outer radius [A]   
    4    3         8.400000       -60.0010           1.009788           1.009788           4.654634
    3    2         2.800000       -11.8048           1.687401           1.687401           5.591446
    5    4        12.000000       -78.3687           1.100005           1.100005           4.654634
 
 
  W                    ion:

  List of free ionic orbitals and eigenvalues:
    n    l      energy [Ha]    energy [eV]
    1    0     -2765.664016    -75257.5469
    2    0      -448.543169    -12205.4806
    3    0      -102.635476     -2792.8534
    4    0       -21.655379      -589.2728
    5    0        -3.604872       -98.0936
    6    0        -0.752243       -20.4696
    2    1      -391.740682    -10659.8063
    3    1       -86.129333     -2343.6984
    4    1       -16.272893      -442.8080
    5    1        -2.280103       -62.0448
    3    2       -67.229405     -1829.4052
    4    2        -9.468448      -257.6496
    5    2        -0.806537       -21.9470
    4    3        -1.931058       -52.5468


  List of ionic basis orbitals and eigenvalues:
    n    l      energy [Ha]    energy [eV]    outer radius [A]
    6    1        -0.508246       -13.8301       5.568868
    6    0        -0.752227       -20.4691       5.568868

 
  W                    hydrogenic:
 
  List of hydrogenic basis orbitals: 
    n    l      effective z      eigenvalue [eV]  inner max. [A]     outer max. [A]     outer radius [A]   
    4    3         7.800000       -51.7355           1.082252           1.082252           4.928043
    4    2         5.800000       -28.5979           0.616741           1.946131           5.568868
    5    4        12.400000       -83.6803           1.069102           1.069102           4.523866
 
 
  Se                   ion:

  List of free ionic orbitals and eigenvalues:
    n    l      energy [Ha]    energy [eV]
    1    0      -467.261007    -12714.8189
    2    0       -60.104893     -1635.5374
    3    0        -8.743714      -237.9286
    4    0        -1.414053       -38.4783
    2    1       -52.964156     -1441.2280
    3    1        -6.516916      -177.3343
    4    1        -0.961869       -26.1738
    3    2        -2.844511       -77.4031


  List of ionic basis orbitals and eigenvalues:
    n    l      energy [Ha]    energy [eV]    outer radius [A]
    4    0        -1.414046       -38.4782       4.287795

 
  Se                   hydrogenic:
 
  List of hydrogenic basis orbitals: 
    n    l      effective z      eigenvalue [eV]  inner max. [A]     outer max. [A]     outer radius [A]   
    3    2         4.300000       -27.9518           1.103845           1.103845           5.475439
    2    1         1.600000        -8.6828           1.326010           1.326010           5.610963
[...]
   1653       0.00000           0.329775            8.97363
   1654       0.00000           0.329778            8.97371
   1655       0.00000           0.330294            8.98776
   1656       0.00000           0.330729            8.99959
   1657       0.00000           0.330730            8.99963
   1658       0.00000           0.331742            9.02716
   1659       0.00000           0.331744            9.02720
   1660       0.00000           0.332175            9.03893
   1661       0.00000           0.333533            9.07588
   1662       0.00000           0.333538            9.07603
   1663       0.00000           0.336461            9.15557
   1664       0.00000           0.342379            9.31661
   1665       0.00000           0.344671            9.37899
   1666       0.00000           0.344673            9.37903
   1667       0.00000           0.345714            9.40736
   1668       0.00000           0.345722            9.40759
   1669       0.00000           0.347571            9.45790
   1670       0.00000           0.347755            9.46288
   1671       0.00000           0.349264            9.50395
   1672       0.00000           0.349265            9.50398
   1673       0.00000           0.351545            9.56603
   1674       0.00000           0.351549            9.56612
   1675       0.00000           0.351773            9.57224
   1676       0.00000           0.352192            9.58362
   1677       0.00000           0.355554            9.67511
   1678       0.00000           0.355559            9.67525
   1679       0.00000           0.356706            9.70647
   1680       0.00000           0.359397            9.77969
   1681       0.00000           0.359400            9.77978
   1682       0.00000           0.360431            9.80783
   1683       0.00000           0.360439            9.80804
   1684       0.00000           0.363489            9.89103
   1685       0.00000           0.364158            9.90925
   1686       0.00000           0.364350            9.91448
   1687       0.00000           0.365583            9.94802
   1688       0.00000           0.368845           10.03680
   1689       0.00000           0.368846           10.03682
   1690       0.00000           0.371698           10.11442
   1691       0.00000           0.377284           10.26641
   1692       0.00000           0.378715           10.30537
   1693       0.00000           0.378720           10.30549
   1694       0.00000           0.383033           10.42285
   1695       0.00000           0.386016           10.50402
   1696       0.00000           0.386023           10.50423
   1697       0.00000           0.386560           10.51884
   1698       0.00000           0.386563           10.51892
   1699       0.00000           0.389310           10.59367
   1700       0.00000           0.389326           10.59410
   1701       0.00000           0.389517           10.59930
   1702       0.00000           0.393750           10.71448
   1703       0.00000           0.393869           10.71773
   1704       0.00000           0.393871           10.71778
   1705       0.00000           0.402110           10.94196
   1706       0.00000           0.402113           10.94206
   1707       0.00000           0.406438           11.05974
   1708       0.00000           0.406439           11.05977
   1709       0.00000           0.409750           11.14985
   1710       0.00000           0.413453           11.25062
   1711       0.00000           0.416402           11.33087
   1712       0.00000           0.416403           11.33090
   1713       0.00000           0.422687           11.50191
   1714       0.00000           0.423450           11.52266
   1715       0.00000           0.423452           11.52272
   1716       0.00000           0.429620           11.69056
   1717       0.00000           0.429623           11.69063
   1718       0.00000           0.431156           11.73236
   1719       0.00000           0.432683           11.77390
   1720       0.00000           0.442798           12.04914
   1721       0.00000           0.442799           12.04917
   1722       0.00000           0.442871           12.05113
   1723       0.00000           0.450161           12.24950
   1724       0.00000           0.450162           12.24952
   1725       0.00000           0.452234           12.30590
   1726       0.00000           0.455734           12.40114
   1727       0.00000           0.455735           12.40118
   1728       0.00000           0.457221           12.44160
   1729       0.00000           0.457223           12.44166
   1730       0.00000           0.459694           12.50892
   1731       0.00000           0.466887           12.70463
   1732       0.00000           0.468708           12.75418
   1733       0.00000           0.468715           12.75438
   1734       0.00000           0.468955           12.76091
   1735       0.00000           0.469034           12.76306
   1736       0.00000           0.473613           12.88767
   1737       0.00000           0.473614           12.88769
   1738       0.00000           0.474200           12.90364
   1739       0.00000           0.474571           12.91372
   1740       0.00000           0.474574           12.91382
   1741       0.00000           0.475796           12.94706
   1742       0.00000           0.476865           12.97616
   1743       0.00000           0.476866           12.97620

  What follows are estimated values for band gap, HOMO, LUMO, etc.
  | They are estimated on a discrete k-point grid and not necessarily exact.
  | For converged numbers, create a DOS and/or band structure plot on a denser k-grid.

  Highest occupied state (VBM) at     -5.44583503 eV (relative to internal zero)
  | Occupation number:      2.00000000
  | K-point:       6 at    0.250000    0.500000    0.000000 (in units of recip. lattice)

  Lowest unoccupied state (CBM) at    -4.39943012 eV (relative to internal zero)
  | Occupation number:      0.00000000
  | K-point:       5 at    0.250000    0.250000    0.000000 (in units of recip. lattice)

  ESTIMATED overall HOMO-LUMO gap:      1.04640491 eV between HOMO at k-point 6 and LUMO at k-point 5
  | This appears to be an indirect band gap.
  | Smallest direct gap :      1.04640676 eV for k_point 5 at    0.250000    0.250000    0.000000 (in units of recip. lattice)
  The gap value is above 0.2 eV. Unless you are using a very sparse k-point grid,
  this system is most likely an insulator or a semiconductor.

  Self-consistency cycle converged.


------------------------------------------------------------
  End self-consistency iteration #    27       :  max(cpu_time)    wall_clock(cpu1)
  | Time for this iteration                    :        6.687 s           6.693 s
  | Charge density update                      :        0.000 s           0.000 s
  | Density mixing                             :        0.438 s           0.439 s
  | Hartree multipole update                   :        0.012 s           0.012 s
  | Hartree multipole summation                :        2.086 s           2.087 s
  | Integration                                :        1.720 s           1.721 s
  | Solution of K.-S. eqns.                    :        2.419 s           2.420 s
  | Total energy evaluation                    :        0.001 s           0.001 s

  Partial memory accounting:
  | Current value for overall tracked memory usage:
  |   Minimum:       61.290 MB (on task  15)
  |   Maximum:       62.333 MB (on task   0)
  |   Average:       61.956 MB
  | Peak value for overall tracked memory usage:
  |   Minimum:      128.710 MB (on task  15 after allocating temp_ham_ovlp)
  |   Maximum:      129.753 MB (on task   0 after allocating temp_ham_ovlp)
  |   Average:      129.375 MB
  | Largest tracked array allocation so far:
  |   Minimum:       33.710 MB (overlap_matrix on task   0)
  |   Maximum:       33.710 MB (overlap_matrix on task   0)
  |   Average:       33.710 MB
  Note:  These values currently only include a subset of arrays which are explicitly tracked.
  The "true" memory usage will be greater.
------------------------------------------------------------
  Obtaining max. number of non-zero basis functions in each batch .
  Evaluating KS electron density on previously omitted grid points, using the density matrix.
  Evaluating density matrix
  Finished density matrix calculation
  | Time :     0.124 s

  Entering Libmbd.
  Libmbd: VdW method: mbd-nl
  Libmbd: Evaluating kinetic energy density...

  Evaluating density matrix
  Finished density matrix calculation
  | Time :     0.143 s

  Libmbd: Performing Hirshfeld analysis...
  Libmbd: Calculating MBD energy...
  Libmbd: Evaluated energy: -0.74082658542232727

  Leaving Libmbd.


  Total energy components:
  | Sum of eigenvalues            :     -130585.36780975 Ha    -3553408.65354510 eV
  | XC energy correction          :       -7340.92362640 Ha     -199756.69538320 eV
  | XC potential correction       :        9558.87334093 Ha      260110.17786695 eV
  | Free-atom electrostatic energy:      -91218.61269214 Ha    -2482184.74352248 eV
  | Hartree energy correction     :           1.51532655 Ha          41.23413340 eV
  | vdW energy correction         :          -0.74082659 Ha         -20.15891706 eV
  | Entropy correction            :           0.00000000 Ha           0.00000000 eV
  | ---------------------------
  | Total energy                  :     -219585.25628740 Ha    -5975218.83936750 eV
  | Total energy, T -> 0          :     -219585.25628740 Ha    -5975218.83936750 eV  <-- do not rely on this value for anything but (periodic) metals
  | Electronic free energy        :     -219585.25628740 Ha    -5975218.83936750 eV

  Derived energy quantities:
  | Kinetic energy                :      225174.65360492 Ha     6127314.07889777 eV
  | Electrostatic energy          :     -437418.24543933 Ha   -11902756.06396500 eV
  | Energy correction for multipole
  | error in Hartree potential    :          -0.01629618 Ha          -0.44344159 eV
  | Sum of eigenvalues per atom                           :      -48676.83087048 eV
  | Total energy (T->0) per atom                          :      -81852.31286805 eV  <-- do not rely on this value for anything but (periodic) metals
  | Electronic free energy per atom                       :      -81852.31286805 eV
  Timings for VdW correction (Tkatchenko-Scheffler 2009 or later):
  | CPU time:        4.859 s, Wall clock time:        4.892 s.

  Energy and forces in a compact form:
  | Total energy uncorrected      :         -0.597521883936750E+07 eV
  | Total energy corrected        :         -0.597521883936750E+07 eV  <-- do not rely on this value for anything but (periodic) metals
  | Electronic free energy        :         -0.597521883936750E+07 eV

  ------------------------------------ 
  Start decomposition of the XC Energy 
  ------------------------------------ 
  X and C from original XC functional choice 
  Hartree-Fock Energy :          0.000000000 Ha              0.000000000 eV
  X Energy            :      -7205.470716770 Ha        -196070.834177528 eV
  C Energy            :       -135.452909633 Ha          -3685.861205673 eV
  Total XC Energy     :      -7340.923626404 Ha        -199756.695383201 eV
  ------------------------------------ 
  LDA X and C from self-consistent density 
  X Energy LDA        :      -6836.613913159 Ha        -186033.729869016 eV
  C Energy LDA        :       -245.508427330 Ha          -6680.624214072 eV
  ------------------------------------ 
  End decomposition of the XC Energy 
  ------------------------------------ 

------------------------------------------------------------

  ------------------------------------------------------------
                      Starting Cube Output
  ------------------------------------------------------------

  The following cube files will be created:

  --------------------------------------
    Cube file:            1
    cube origin       4.1500      7.1880     50.0000
    cube edge 100      0.1660      0.0000      0.0000
    cube edge 100     -0.0830      0.1438      0.0000
    cube edge 100      0.0000      0.0000      1.0000
    cube filename: cube_001_stm_01.cube
  --------------------------------------

  * WARNING: The output  of  the cube file is in 1/Ang^3  or
  * WARNING: 1/Ang^3/2,  but  the cube voxel  definition  is
  * WARNING: in atomic units. Be careful when postprocessing
  * WARNING: Consistent units can be chosen in control.in by
  *               cube_content_unit  bohr

  Evaluating density matrix
  Finished density matrix calculation
  | Time :     0.118 s
 
   Starting cube            1
   Cube will be divided in
     100 minicubes along the first,
     100 minicubes along the second, and
     100 minicubes along the third cube edge
   Dividing grid points on processors

      => Writing 3906kB binary STM file for WSxM.

   Cube file 1 finished.

  Cube output                                             :  max(cpu_time)    wall_clock(cpu1)
  | Total time for cube output                            :         11.107              11.191
------------------------------------------------------------

------------------------------------------------------------------------------
  Final output of selected total energy values:

  The following output summarizes some interesting total energy values
  at the end of a run (AFTER all relaxation, molecular dynamics, etc.).

  | Total energy of the DFT / Hartree-Fock s.c.f. calculation      :       -5975218.839367498 eV
  | Final zero-broadening corrected energy (caution - metals only) :       -5975218.839367498 eV
  | For reference only, the value of 1 Hartree used in FHI-aims is :             27.211384500 eV
  | For reference only, the overall average (free atom contribution
  | + realspace contribution) of the electrostatic potential after
  | s.c.f. convergence is                                          :             -1.195259803 eV

  Before relying on these values, please be sure to understand exactly which
  total energy value is referred to by a given number. Different objects may
  all carry the same name 'total energy'. Definitions:

  Total energy of the DFT / Hartree-Fock s.c.f. calculation:
  | Note that this energy does not include ANY quantities calculated after the
  | s.c.f. cycle, in particular not ANY RPA, MP2, etc. many-body perturbation terms.

  Final zero-broadening corrected energy:
  | For metallic systems only, a broadening of the occupation numbers at the Fermi
  | level can be extrapolated back to zero broadening by an electron-gas inspired
  | formula. For all systems that are not real metals, this value can be
  | meaningless and should be avoided.

------------------------------------------------------------------------------
  Methods described in the following list of references were used in this FHI-aims run.
  If you publish the results, please make sure to cite these reference if they apply.
  FHI-aims is an academic code, and for our developers (often, Ph.D. students
  and postdocs), scientific credit in the community is essential.
  Thank you for helping us!

  For any use of FHI-aims, please cite:

    Volker Blum, Ralf Gehrke, Felix Hanke, Paula Havu, Ville Havu,
    Xinguo Ren, Karsten Reuter, and Matthias Scheffler
    'Ab initio molecular simulations with numeric atom-centered orbitals'
    Computer Physics Communications 180, 2175-2196 (2009)
    http://dx.doi.org/10.1016/j.cpc.2009.06.022


  The provided symmetry information was generated with SPGlib:

    Atsushi Togo, Yusuke Seto, Dimitar Pashov
    SPGlib 1.7.3 obtained from http://spglib.sourceforge.net
    Copyright (C) 2008 Atsushi Togo


  The ELSI infrastructure was used in your run to solve the Kohn-Sham electronic structure.
  Please check out http://elsi-interchange.org to learn more.
  If scalability is important for your project, please acknowledge ELSI by citing:

    V. W-z. Yu, F. Corsetti, A. Garcia, W. P. Huhn, M. Jacquelin, W. Jia,
    B. Lange, L. Lin, J. Lu, W. Mi, A. Seifitokaldani, A. Vazquez-Mayagoitia,
    C. Yang, H. Yang, and V. Blum
    'ELSI: A unified software interface for Kohn-Sham electronic structure solvers'
    Computer Physics Communications 222, 267-285 (2018).
    http://dx.doi.org/10.1016/j.cpc.2017.09.007


  For the real-space grid partitioning and parallelization used in this calculation, please cite:

    Ville Havu, Volker Blum, Paula Havu, and Matthias Scheffler,
    'Efficient O(N) integration for all-electron electronic structure calculation'
    'using numerically tabulated basis functions'
    Journal of Computational Physics 228, 8367-8379 (2009).
    http://dx.doi.org/10.1016/j.jcp.2009.08.008

  Of course, there are many other important community references, e.g., those cited in the
  above references. Our list is limited to references that describe implementations in the
  FHI-aims code. The reason is purely practical (length of this list) - please credit others as well.

 * A warning regarding the cube file format (cube_content_unit legacy)
 * was issued above. The output is Angstrom-based but the cube voxel
 * definition is in atomic units. Please check carefully.

------------------------------------------------------------
          Leaving FHI-aims.
          Date     :  20210906, Time     :  125408.127

          Computational steps:
          | Number of self-consistency cycles          :           27
          | Number of SCF (re)initializations          :            1

          Detailed time accounting                     :  max(cpu_time)    wall_clock(cpu1)
          | Total time                                 :      291.142 s         291.956 s
          | Preparation time                           :        1.051 s           1.079 s
          | Boundary condition initalization           :        0.977 s           0.978 s
          | Grid partitioning                          :        1.684 s           1.544 s
          | Preloading free-atom quantities on grid    :        0.600 s           0.669 s
          | Free-atom superposition energy             :        0.084 s           0.086 s
          | Total time for integrations                :       49.645 s          49.691 s
          | Total time for solution of K.-S. equations :       68.893 s          68.943 s
          | Total time for density update              :       83.529 s          83.591 s
          | Total time for mixing & preconditioning    :       11.440 s          11.446 s
          | Total time for Hartree multipole update    :        0.341 s           0.341 s
          | Total time for Hartree multipole sum       :       55.985 s          56.026 s
          | Total time for total energy evaluation     :        0.044 s           0.051 s
          | Total time for scaled ZORA corrections     :        0.000 s           0.000 s
          | Total time for vdW correction              :        4.859 s           4.892 s
          | Total time for cube output                 :       11.107 s          11.191 s

          Partial memory accounting:
          | Residual value for overall tracked memory usage across tasks:     0.000000 MB (should be 0.000000 MB)
          | Peak values for overall tracked memory usage:
          |   Minimum:      128.710 MB (on task  15 after allocating temp_ham_ovlp)
          |   Maximum:      129.753 MB (on task   0 after allocating temp_ham_ovlp)
          |   Average:      129.375 MB
          | Largest tracked array allocation:
          |   Minimum:       33.710 MB (overlap_matrix on task   0)
          |   Maximum:       33.710 MB (overlap_matrix on task   0)
          |   Average:       33.710 MB
          Note:  These values currently only include a subset of arrays which are explicitly tracked.
          The "true" memory usage will be greater.

          Have a nice day.
------------------------------------------------------------
