------------------------------------------------------------
          Invoking FHI-aims ...

          When using FHI-aims, please cite the following reference:

            Volker Blum, Ralf Gehrke, Felix Hanke, Paula Havu,
            Ville Havu, Xinguo Ren, Karsten Reuter, and Matthias Scheffler,
            'Ab Initio Molecular Simulations with Numeric Atom-Centered Orbitals',
            Computer Physics Communications 180, 2175-2196 (2009)

          In addition, many other developments in FHI-aims are likely important for
          your particular application. A partial list of references is given at the end of
          this file. Thank you for giving credit to the authors of these developments.

          For any questions about FHI-aims, please visit our slack channel at

            https://fhi-aims.slack.com

          and our main development and support site at

            https://aims-git.rz-berlin.mpg.de .

          The latter site, in particular, has a wiki to collect information, as well
          as an issue tracker to log discussions, suggest improvements, and report issues
          or bugs. https://aims-git.rz-berlin.mpg.de is also the main development site
          of the project and all new and updated code versions can be obtained there.
          Please send an email to aims-coordinators@fhi-berlin.mpg.de and we will add
          you to these sites. They are for you and everyone is welcome there.

------------------------------------------------------------



  Date     :  20211223, Time     :  010722.223
  Time zero on CPU 1             :   0.176824000000000E+00  s.
  Internal wall clock time zero  :           409453642.223  s.

  FHI-aims created a unique identifier for this run for later identification
  aims_uuid : 47369E01-1CB8-4FE5-ABCA-646C1E034AFC

  Build configuration of the current instance of FHI-aims
  -------------------------------------------------------
  FHI-aims version      : 211206
  Commit number         : 89e815567
  CMake host system     : Linux-5.3.18-24.86-default
  CMake version         : 3.22.0
  Fortran compiler      : /mpcdf/soft/SLE_15/packages/x86_64/intel_parallel_studio/2020.2/compilers_and_libraries_2020.2.254/linux/mpi/intel64/bin/mpiifort (Intel) version 19.1.2.20200623
  Fortran compiler flags: -O3 -ip -fp-model precise
  C compiler            : /mpcdf/soft/SLE_15/packages/x86_64/intel/19.1.2/bin/icc (Intel) version 19.1.2.20200623
  C compiler flags      : -O3 -ip -fp-model precise
  C++ compiler          : /mpcdf/soft/SLE_15/packages/x86_64/intel/19.1.2/bin/icpc (Intel) version 19.1.2.20200623
  C++ compiler flags    : -O3 -ip -fp-model precise
  Using MPI
  Using ScaLAPACK
  Using LibXC
  Using i-PI
  Using RLSY
  Linking against: /mpcdf/soft/SLE_15/packages/x86_64/intel_oneapi/2021.2/mkl/latest/lib/intel64/libmkl_intel_lp64.so
                   /mpcdf/soft/SLE_15/packages/x86_64/intel_oneapi/2021.2/mkl/latest/lib/intel64/libmkl_sequential.so
                   /mpcdf/soft/SLE_15/packages/x86_64/intel_oneapi/2021.2/mkl/latest/lib/intel64/libmkl_core.so
                   /mpcdf/soft/SLE_15/packages/x86_64/intel_oneapi/2021.2/mkl/latest/lib/intel64/libmkl_blacs_intelmpi_lp64.so
                   /mpcdf/soft/SLE_15/packages/x86_64/intel_oneapi/2021.2/mkl/latest/lib/intel64/libmkl_scalapack_lp64.so

  Using      288 parallel tasks.
  Task        0 on host ravg1169 reporting.
  Task        1 on host ravg1169 reporting.
  Task        2 on host ravg1169 reporting.
  Task        3 on host ravg1169 reporting.
  Task        4 on host ravg1169 reporting.
  Task        5 on host ravg1169 reporting.
  Task        6 on host ravg1169 reporting.
  Task        7 on host ravg1169 reporting.
  Task        8 on host ravg1169 reporting.
  Task        9 on host ravg1169 reporting.
  Task       10 on host ravg1169 reporting.
  Task       11 on host ravg1169 reporting.
  Task       12 on host ravg1169 reporting.
  Task       13 on host ravg1169 reporting.
  Task       14 on host ravg1169 reporting.
  Task       15 on host ravg1169 reporting.
  Task       16 on host ravg1169 reporting.
  Task       17 on host ravg1169 reporting.
  Task       18 on host ravg1169 reporting.
  Task       19 on host ravg1169 reporting.
  Task       20 on host ravg1169 reporting.
  Task       21 on host ravg1169 reporting.
  Task       22 on host ravg1169 reporting.
  Task       23 on host ravg1169 reporting.
  Task       24 on host ravg1169 reporting.
  Task       25 on host ravg1169 reporting.
  Task       26 on host ravg1169 reporting.
  Task       27 on host ravg1169 reporting.
  Task       28 on host ravg1169 reporting.
  Task       29 on host ravg1169 reporting.
  Task       30 on host ravg1169 reporting.
  Task       31 on host ravg1169 reporting.
  Task       32 on host ravg1169 reporting.
  Task       33 on host ravg1169 reporting.
  Task       34 on host ravg1169 reporting.
  Task       35 on host ravg1169 reporting.
  Task       36 on host ravg1169 reporting.
  Task       37 on host ravg1169 reporting.
  Task       38 on host ravg1169 reporting.
  Task       39 on host ravg1169 reporting.
  Task       40 on host ravg1169 reporting.
  Task       41 on host ravg1169 reporting.
  Task       42 on host ravg1169 reporting.
  Task       43 on host ravg1169 reporting.
  Task       44 on host ravg1169 reporting.
  Task       45 on host ravg1169 reporting.
  Task       46 on host ravg1169 reporting.
  Task       47 on host ravg1169 reporting.
  Task       48 on host ravg1169 reporting.
  Task       49 on host ravg1169 reporting.
  Task       50 on host ravg1169 reporting.
  Task       51 on host ravg1169 reporting.
  Task       52 on host ravg1169 reporting.
  Task       53 on host ravg1169 reporting.
  Task       54 on host ravg1169 reporting.
  Task       55 on host ravg1169 reporting.
  Task       56 on host ravg1169 reporting.
  Task       57 on host ravg1169 reporting.
  Task       58 on host ravg1169 reporting.
  Task       59 on host ravg1169 reporting.
  Task       60 on host ravg1169 reporting.
  Task       61 on host ravg1169 reporting.
  Task       62 on host ravg1169 reporting.
  Task       63 on host ravg1169 reporting.
  Task       64 on host ravg1169 reporting.
  Task       65 on host ravg1169 reporting.
  Task       66 on host ravg1169 reporting.
  Task       67 on host ravg1169 reporting.
  Task       68 on host ravg1169 reporting.
  Task       69 on host ravg1169 reporting.
  Task       70 on host ravg1169 reporting.
  Task       71 on host ravg1169 reporting.
  Task       72 on host ravg1170 reporting.
  Task       73 on host ravg1170 reporting.
  Task       74 on host ravg1170 reporting.
  Task       75 on host ravg1170 reporting.
  Task       76 on host ravg1170 reporting.
  Task       77 on host ravg1170 reporting.
  Task       78 on host ravg1170 reporting.
  Task       79 on host ravg1170 reporting.
  Task       80 on host ravg1170 reporting.
  Task       81 on host ravg1170 reporting.
  Task       82 on host ravg1170 reporting.
  Task       83 on host ravg1170 reporting.
  Task       84 on host ravg1170 reporting.
  Task       85 on host ravg1170 reporting.
  Task       86 on host ravg1170 reporting.
  Task       87 on host ravg1170 reporting.
  Task       88 on host ravg1170 reporting.
  Task       89 on host ravg1170 reporting.
  Task       90 on host ravg1170 reporting.
  Task       91 on host ravg1170 reporting.
  Task       92 on host ravg1170 reporting.
  Task       93 on host ravg1170 reporting.
  Task       94 on host ravg1170 reporting.
  Task       95 on host ravg1170 reporting.
  Task       96 on host ravg1170 reporting.
  Task       97 on host ravg1170 reporting.
  Task       98 on host ravg1170 reporting.
  Task       99 on host ravg1170 reporting.
  Task      100 on host ravg1170 reporting.
  Task      101 on host ravg1170 reporting.
  Task      102 on host ravg1170 reporting.
  Task      103 on host ravg1170 reporting.
  Task      104 on host ravg1170 reporting.
  Task      105 on host ravg1170 reporting.
  Task      106 on host ravg1170 reporting.
  Task      107 on host ravg1170 reporting.
  Task      108 on host ravg1170 reporting.
  Task      109 on host ravg1170 reporting.
  Task      110 on host ravg1170 reporting.
  Task      111 on host ravg1170 reporting.
  Task      112 on host ravg1170 reporting.
  Task      113 on host ravg1170 reporting.
  Task      114 on host ravg1170 reporting.
  Task      115 on host ravg1170 reporting.
  Task      116 on host ravg1170 reporting.
  Task      117 on host ravg1170 reporting.
  Task      118 on host ravg1170 reporting.
  Task      119 on host ravg1170 reporting.
  Task      120 on host ravg1170 reporting.
  Task      121 on host ravg1170 reporting.
  Task      122 on host ravg1170 reporting.
  Task      123 on host ravg1170 reporting.
  Task      124 on host ravg1170 reporting.
  Task      125 on host ravg1170 reporting.
  Task      126 on host ravg1170 reporting.
  Task      127 on host ravg1170 reporting.
  Task      128 on host ravg1170 reporting.
  Task      129 on host ravg1170 reporting.
  Task      130 on host ravg1170 reporting.
  Task      131 on host ravg1170 reporting.
  Task      132 on host ravg1170 reporting.
  Task      133 on host ravg1170 reporting.
  Task      134 on host ravg1170 reporting.
  Task      135 on host ravg1170 reporting.
  Task      136 on host ravg1170 reporting.
  Task      137 on host ravg1170 reporting.
  Task      138 on host ravg1170 reporting.
  Task      139 on host ravg1170 reporting.
  Task      140 on host ravg1170 reporting.
  Task      141 on host ravg1170 reporting.
  Task      142 on host ravg1170 reporting.
  Task      143 on host ravg1170 reporting.
  Task      144 on host ravg1171 reporting.
  Task      145 on host ravg1171 reporting.
  Task      146 on host ravg1171 reporting.
  Task      147 on host ravg1171 reporting.
  Task      148 on host ravg1171 reporting.
  Task      149 on host ravg1171 reporting.
  Task      150 on host ravg1171 reporting.
  Task      151 on host ravg1171 reporting.
  Task      152 on host ravg1171 reporting.
  Task      153 on host ravg1171 reporting.
  Task      154 on host ravg1171 reporting.
  Task      155 on host ravg1171 reporting.
  Task      156 on host ravg1171 reporting.
  Task      157 on host ravg1171 reporting.
  Task      158 on host ravg1171 reporting.
  Task      159 on host ravg1171 reporting.
  Task      160 on host ravg1171 reporting.
  Task      161 on host ravg1171 reporting.
  Task      162 on host ravg1171 reporting.
  Task      163 on host ravg1171 reporting.
  Task      164 on host ravg1171 reporting.
  Task      165 on host ravg1171 reporting.
  Task      166 on host ravg1171 reporting.
  Task      167 on host ravg1171 reporting.
  Task      168 on host ravg1171 reporting.
  Task      169 on host ravg1171 reporting.
  Task      170 on host ravg1171 reporting.
  Task      171 on host ravg1171 reporting.
  Task      172 on host ravg1171 reporting.
  Task      173 on host ravg1171 reporting.
  Task      174 on host ravg1171 reporting.
  Task      175 on host ravg1171 reporting.
  Task      176 on host ravg1171 reporting.
  Task      177 on host ravg1171 reporting.
  Task      178 on host ravg1171 reporting.
  Task      179 on host ravg1171 reporting.
  Task      180 on host ravg1171 reporting.
  Task      181 on host ravg1171 reporting.
  Task      182 on host ravg1171 reporting.
  Task      183 on host ravg1171 reporting.
  Task      184 on host ravg1171 reporting.
  Task      185 on host ravg1171 reporting.
  Task      186 on host ravg1171 reporting.
  Task      187 on host ravg1171 reporting.
  Task      188 on host ravg1171 reporting.
  Task      189 on host ravg1171 reporting.
  Task      190 on host ravg1171 reporting.
  Task      191 on host ravg1171 reporting.
  Task      192 on host ravg1171 reporting.
  Task      193 on host ravg1171 reporting.
  Task      194 on host ravg1171 reporting.
  Task      195 on host ravg1171 reporting.
  Task      196 on host ravg1171 reporting.
  Task      197 on host ravg1171 reporting.
  Task      198 on host ravg1171 reporting.
  Task      199 on host ravg1171 reporting.
  Task      200 on host ravg1171 reporting.
  Task      201 on host ravg1171 reporting.
  Task      202 on host ravg1171 reporting.
  Task      203 on host ravg1171 reporting.
  Task      204 on host ravg1171 reporting.
  Task      205 on host ravg1171 reporting.
  Task      206 on host ravg1171 reporting.
  Task      207 on host ravg1171 reporting.
  Task      208 on host ravg1171 reporting.
  Task      209 on host ravg1171 reporting.
  Task      210 on host ravg1171 reporting.
  Task      211 on host ravg1171 reporting.
  Task      212 on host ravg1171 reporting.
  Task      213 on host ravg1171 reporting.
  Task      214 on host ravg1171 reporting.
  Task      215 on host ravg1171 reporting.
  Task      216 on host ravg1172 reporting.
  Task      217 on host ravg1172 reporting.
  Task      218 on host ravg1172 reporting.
  Task      219 on host ravg1172 reporting.
  Task      220 on host ravg1172 reporting.
  Task      221 on host ravg1172 reporting.
  Task      222 on host ravg1172 reporting.
  Task      223 on host ravg1172 reporting.
  Task      224 on host ravg1172 reporting.
  Task      225 on host ravg1172 reporting.
  Task      226 on host ravg1172 reporting.
  Task      227 on host ravg1172 reporting.
  Task      228 on host ravg1172 reporting.
  Task      229 on host ravg1172 reporting.
  Task      230 on host ravg1172 reporting.
  Task      231 on host ravg1172 reporting.
  Task      232 on host ravg1172 reporting.
  Task      233 on host ravg1172 reporting.
  Task      234 on host ravg1172 reporting.
  Task      235 on host ravg1172 reporting.
  Task      236 on host ravg1172 reporting.
  Task      237 on host ravg1172 reporting.
  Task      238 on host ravg1172 reporting.
  Task      239 on host ravg1172 reporting.
  Task      240 on host ravg1172 reporting.
  Task      241 on host ravg1172 reporting.
  Task      242 on host ravg1172 reporting.
  Task      243 on host ravg1172 reporting.
  Task      244 on host ravg1172 reporting.
  Task      245 on host ravg1172 reporting.
  Task      246 on host ravg1172 reporting.
  Task      247 on host ravg1172 reporting.
  Task      248 on host ravg1172 reporting.
  Task      249 on host ravg1172 reporting.
  Task      250 on host ravg1172 reporting.
  Task      251 on host ravg1172 reporting.
  Task      252 on host ravg1172 reporting.
  Task      253 on host ravg1172 reporting.
  Task      254 on host ravg1172 reporting.
  Task      255 on host ravg1172 reporting.
  Task      256 on host ravg1172 reporting.
  Task      257 on host ravg1172 reporting.
  Task      258 on host ravg1172 reporting.
  Task      259 on host ravg1172 reporting.
  Task      260 on host ravg1172 reporting.
  Task      261 on host ravg1172 reporting.
  Task      262 on host ravg1172 reporting.
  Task      263 on host ravg1172 reporting.
  Task      264 on host ravg1172 reporting.
  Task      265 on host ravg1172 reporting.
  Task      266 on host ravg1172 reporting.
  Task      267 on host ravg1172 reporting.
  Task      268 on host ravg1172 reporting.
  Task      269 on host ravg1172 reporting.
  Task      270 on host ravg1172 reporting.
  Task      271 on host ravg1172 reporting.
  Task      272 on host ravg1172 reporting.
  Task      273 on host ravg1172 reporting.
  Task      274 on host ravg1172 reporting.
  Task      275 on host ravg1172 reporting.
  Task      276 on host ravg1172 reporting.
  Task      277 on host ravg1172 reporting.
  Task      278 on host ravg1172 reporting.
  Task      279 on host ravg1172 reporting.
  Task      280 on host ravg1172 reporting.
  Task      281 on host ravg1172 reporting.
  Task      282 on host ravg1172 reporting.
  Task      283 on host ravg1172 reporting.
  Task      284 on host ravg1172 reporting.
  Task      285 on host ravg1172 reporting.
  Task      286 on host ravg1172 reporting.
  Task      287 on host ravg1172 reporting.

  Performing system and environment tests:
  | Environment variable OMP_NUM_THREADS correctly set to 1.
  | Checking for ScaLAPACK...
  | Testing pdtran()...
  | All pdtran() tests passed.

  Obtaining array dimensions for all initial allocations:
  
  -----------------------------------------------------------------------
  Parsing control.in (first pass over file, find array dimensions only).
  The contents of control.in will be repeated verbatim below
  unless switched off by setting 'verbatim_writeout .false.' .
  in the first line of control.in .
  -----------------------------------------------------------------------
  
  ##### Physical settings  ################
  xc                 pbe
  spin               none
  charge      0.0
  relativistic       atomic_zora scalar
  #elsi_restart read
  # SCF settings
  
  #relax_unit_cell full
  #output dos_tetrahedron -10 0 1001 0.1
  #output atom_proj_dos_tetrahedron -10 0 1001 0.1
  #output species_proj_dos_tetrahedron -10 0 1001 0.1
  #
  #########relax_geometry trm 1E-3
  
  #vdw_correction_hirshfeld
  occupation_type gaussian       0.01
  # k-grid settings  (to be adjusted)
  k_grid   4 4 1
  #empty_states 8
  use_dipole_correction
  #include_spin_orbit non_self_consistent
  
  mixer   pulay
  n_max_pulay        12 # high for metal
  charge_mix_param   0.1 #low for metal
  many_body_dispersion_nl    beta=0.81
  #many_body_dispersion_nl    beta=0.81 do_rpa=.true. rpa_rescale_eigs=.true. parallel_mode=k_points
  ################################################################################
  #
  #  FHI-aims code project
  # Volker Blum, Fritz Haber Institute Berlin, 2009
  #
  #  Suggested "tight" defaults for S atom (to be pasted into control.in file)
  #
  #  Revised Jan 04, 2011, following tests (SiC) done by Lydia Nemec:
  #     d and g functions of tier 2 now enabled by default.
  #
  ################################################################################
    species        S
  #     global species definitions
      nucleus             16
      mass                32.065
  #
      l_hartree           6
  #
      cut_pot             5.0          2.0  1.0
      basis_dep_cutoff    1e-4
  #
      radial_base         44 7.0
      radial_multiplier   2
      angular_grids       specified
        division   0.4665  110
        division   0.5810  194
        division   0.7139  302
        division   0.8274  434
  #      division   0.9105  590
  #      division   1.0975  770
  #      division   1.2028  974
  #      outer_grid  974
        outer_grid  434
  ################################################################################
  #
  #  Definition of "minimal" basis
  #
  ################################################################################
  #     valence basis states
      valence      3  s   2.
      valence      3  p   4.
  #     ion occupancy
      ion_occ      3  s   1.
      ion_occ      3  p   3.
  ################################################################################
  #
  #  Suggested additional basis functions. For production calculations,
  #  uncomment them one after another (the most important basis functions are
  #  listed first).
  #
  #  Constructed for dimers: 1.6 A, 1.9 A, 2.5 A, 3.25 A, 4.0 A
  #
  ################################################################################
  #  "First tier" - improvements: -652.81 meV to -45.53 meV
       ionic 3 d auto
       hydro 2 p 1.8
       hydro 4 f 7
       ionic 3 s auto
  #  "Second tier" - improvements: -30.20 meV to -1.74 meV
       hydro 4 d 6.2
       hydro 5 g 10.8
  #     hydro 4 p 4.9
  #     hydro 5 f 10
  #     hydro 1 s 0.8
  #  "Third tier" - improvements: -1.04 meV to -0.20 meV
  #     hydro 3 d 3.9
  #     hydro 3 d 2.7
  #     hydro 5 g 12
  #     hydro 4 p 10.4
  #     hydro 5 f 12.4
  #     hydro 2 s 1.9
  #  "Fourth tier" - improvements: -0.35 meV to -0.06 meV
  #     hydro 4 d 10.4
  #     hydro 4 p 7.2
  #     hydro 4 d 10
  #     hydro 5 g 19.2
  #     hydro 4 s 12
  
  ################################################################################
  #
  # For methods that use the localized form of the "resolution of identity" for
  # the two-electron Coulomb operator (RI_method LVL), particularly Hartree-Fock and
  # hybrid density functional calculations, the highest accuracy can be obtained by
  # uncommenting the line beginning with "for_aux"  below, thus adding an extra g radial
  # function to the construction of the product basis set for the expansion.
  # See Ref. New J. Phys. 17, 093020 (2015) for more information, particularly Figs. 1 and 6.
  #
  ################################################################################
  #
  # for_aux hydro 5 g 6.0
  ################################################################################
  #
  #  FHI-aims code project
  # Volker Blum, Fritz Haber Institute Berlin, 2009
  #
  #  Suggested "tight" defaults for Mo atom (to be pasted into control.in file)
  #
  ################################################################################
    species        Mo
  #     global species definitions
      nucleus             42
      mass                95.94
  #
      l_hartree           6
  #
      cut_pot             5.0  2.0  1.0
      basis_dep_cutoff    1e-4
  #
      radial_base         59 7.0
      radial_multiplier   2
      angular_grids specified
        division   0.3117   50
        division   0.6750  110
        division   1.0351  194
        division   1.2073  302
        division   1.6402  434
  #      division   1.9185  590
  #      division   2.0237  770
  #      division   2.0980  974
  #      division   2.7972 1202
  #      outer_grid  974
        outer_grid  434
  ################################################################################
  #
  #  Definition of "minimal" basis
  #
  ################################################################################
  #     valence basis states
      valence      5  s   1.
      valence      4  p   6.
      valence      4  d   5.
  #     ion occupancy
      ion_occ     5  s   0.
      ion_occ     4  p   6.
      ion_occ     4  d   4.
  ################################################################################
  #
  #  Suggested additional basis functions. For production calculations,
  #  uncomment them one after another (the most important basis functions are
  #  listed first).
  #
  #  Constructed for dimers: 1.675 A, 1.9 A, 2.375 A, 3.00 A, 4.00 A
  #
  ################################################################################
  #  "First tier"  - max. impr. -711.23  meV, min. impr. -21.07 meV
       hydro 4 f 8.4
       hydro 3 d 2.8
       ionic 5 p auto
       hydro 5 g 12
       ionic 5 s auto
  #  "Second tier" - max. impr. -39.38  meV, min. impr. -2.68 meV
  #     hydro 4 f 12.4
  #     hydro 3 d 3.3
  #     hydro 6 h 17.2
  #     hydro 4 f 7.6
  #     hydro 3 p 3.0
  #     hydro 1 s 0.65
  #  "Third tier"  - max. impr. -5.50 meV, min. impr. -0.47 meV
  #     hydro 4 f 29.2
  #     hydro 5 g 11.2
  #     hydro 3 d 6.8
  #     hydro 6 h 14.8
  #     hydro 2 p 2.3
  #     hydro 4 s 3.8
  #  "Fourth tier"  - max. impr. -0.58 meV, min. impr. -0.19 meV
  #     hydro 5 f 6.8
  #     hydro 5 d 14.8
  #     hydro 6 s 7.8
  #     hydro 5 g 20.8
  #     hydro 5 d 10.4
  #     hydro 5 p 9.8
  #  Further functions - -0.17 meV and below
  #     hydro 5 d 3.2
  compute_forces .true.
  final_forces_cleaned .true.
  
  -----------------------------------------------------------------------
  Completed first pass over input file control.in .
  -----------------------------------------------------------------------
  
  
  -----------------------------------------------------------------------
  Parsing geometry.in (first pass over file, find array dimensions only).
  The contents of geometry.in will be repeated verbatim below
  unless switched off by setting 'verbatim_writeout .false.' .
  in the first line of geometry.in .
  -----------------------------------------------------------------------
  
  #
  # temporary structure-file for finite-difference calculation of forces
  # displacement   0.0025 of \# atom     1 direction     0
  #
  lattice_vector   15.80271867    0.00000000    0.00000000
  lattice_vector   -7.87096434   13.65967927    0.00000000
  lattice_vector    0.00000000    0.00000000  100.00000000
  atom    3.91992955    7.77007443   49.57344400  Mo
  atom    5.46047896    8.65448265   51.18431300   S
  atom    5.54533106    8.62889930   48.04795300   S
  atom    2.39508320   10.41611644   49.57331300  Mo
  atom    3.93243404   11.30108513   51.18438100   S
  atom    3.95434323   11.38999379   48.04792300   S
  atom    0.82965251   13.18940124   49.65943600  Mo
  atom   10.27368276    0.43552972   51.23765400   S
  atom   10.27299949    0.46153939   48.10401200   S
  atom    7.11649533    2.27683878   49.67702800  Mo
  atom    8.69487233    3.18507345   51.24955200   S
  atom    8.70116471    3.18861172   48.11599000   S
  atom    5.53416098    5.02500069   49.65946700  Mo
  atom    7.10787728    5.92986292   51.23754100   S
  atom    7.12992364    5.91607840   48.10392200   S
  atom    7.11228441    7.74174521   49.65840100  Mo
  atom    8.69221006    8.65465941   51.23260000   S
  atom    8.71114455    8.64272358   48.09982500   S
  atom    5.52659748   10.45665973   49.61773100  Mo
  atom    7.10594482   11.36534381   51.20710500   S
  atom    7.13777721   11.38378069   48.08271100   S
  atom    3.97281728   13.18982919   49.65857500  Mo
  atom   13.42704434    0.43731504   51.23277000   S
  atom   13.42621234    0.45979956   48.10003000   S
  atom   10.27801644    2.27402502   49.68230200  Mo
  atom   11.86413908    3.18496417   51.24906600   S
  atom   11.85712295    3.18860516   48.11551700   S
  atom    8.70091432    5.01104815   49.68221000  Mo
  atom   10.28550686    5.92465176   51.24895100   S
  atom   10.28520817    5.91658285   48.11540000   S
  atom   10.29013567    7.74259334   49.67588800  Mo
  atom   -3.91198262    8.65452951   51.23270500   S
  atom   -3.93082395    8.64281975   48.10001300   S
  atom    8.70954031   10.46912624   49.65829300  Mo
  atom   -5.50511074   11.38073075   51.22311800   S
  atom   -5.50487105   11.37971775   48.09385500   S
  atom    7.13493931   13.20168593   49.65840000  Mo
  atom    0.78943666    0.45682489   51.22321100   S
  atom    0.78858754    0.45765649   48.09396300   S
  atom   13.43963005    2.27673592   49.67611300  Mo
  atom   -0.77026564    3.20237125   51.23289800   S
  atom   -0.78991197    3.19189974   48.10026400   S
  atom   11.86713093    5.01095185   49.68182800  Mo
  atom   -2.33975855    5.92929892   51.23705700   S
  atom   -2.36203991    5.91626772   48.10355400   S
  atom   -2.33469770    7.74159154   49.65853700  Mo
  atom   -0.67782894    8.65411084   51.18487800   S
  atom   -0.76516299    8.62910816   48.04842100   S
  atom   -3.91948435   10.46914236   49.65855500  Mo
  atom   -2.31329280   11.36506952   51.20765300   S
  atom   -2.34481049   11.38383765   48.08324500   S
  atom   -5.50016914   13.20533621   49.65836700  Mo
  atom    3.95449110    0.45685016   51.22359000   S
  atom    3.95594110    0.45774760   48.09438000   S
  atom    0.79618474    2.28533332   49.65872400  Mo
  atom    2.37797197    3.22371559   51.20778300   S
  atom    2.37829359    3.18705260   48.08338200   S
  atom   -0.76885185    5.02431129   49.65874300  Mo
  atom    0.85285271    5.99844107   51.18509800   S
  atom    0.78713245    5.93502642   48.04851200   S
  atom    0.85727787    7.76939308   49.57389000  Mo
  atom    2.38940402    8.65070766   47.98954000   S
  atom   -0.73634881   10.45650456   49.61833400  Mo
  atom    0.86099899   11.29937903   51.18528800   S
  atom    0.83823754   11.39021125   48.04831200   S
  atom   -2.33261073   13.20161162   49.65907700  Mo
  atom    7.11988328    0.43700469   51.23358000   S
  atom    7.12073439    0.45979122   48.10104400   S
  atom    3.95745595    2.28547470   49.65914000  Mo
  atom    5.52612376    3.20293894   51.23360300   S
  atom    5.54621268    3.19223221   48.10109100   S
  atom    2.38294280    5.04316984   49.61847500  Mo
  atom    3.91443259    6.00041175   51.18543900   S
  atom    3.98147653    5.93512996   48.04843300   S
  
  -----------------------------------------------------------------------
  Completed first pass over input file geometry.in .
  -----------------------------------------------------------------------
  

  Basic array size parameters:
  | Number of species                 :        2
  | Number of atoms                   :       74
  | Number of lattice vectors         :        3
  | Max. basis fn. angular momentum   :        4
  | Max. atomic/ionic basis occupied n:        5
  | Max. number of basis fn. types    :        3
  | Max. radial fns per species/type  :       10
  | Max. logarithmic grid size        :     1436
  | Max. radial integration grid size :      119
  | Max. angular integration grid size:      434
  | Max. angular grid division number :        8
  | Radial grid for Hartree potential :     1436
  | Number of spin channels           :        1

------------------------------------------------------------
          Reading file control.in.
------------------------------------------------------------
  XC: Using PBE gradient-corrected functionals.
  Spin treatment: No spin polarisation.
  Charge =   0.000000E+00: Neutral system requested explicitly.
  Scalar relativistic treatment of kinetic energy: on-site free-atom approximation to ZORA.
  Occupation type: Gaussian broadening, width =   0.100000E-01 eV.
  Found k-point grid:         4         4         1
  Using dipole correction.
  Using pulay charge density mixing.
  Pulay mixing - number of memorized iterations:   12
  Charge density mixing - mixing parameter:     0.1000
  Using libMBD for calculating MBD and TS energies
 
  Reading configuration options for species S                   .
  | Found nuclear charge :  16.0000
  | Found atomic mass :    32.0650000000000      amu
  | Found l_max for Hartree potential  :   6
  | Found cutoff potl. onset [A], width [A], scale factor :    5.00000    2.00000    1.00000
  | Threshold for basis-dependent cutoff potential is   0.100000E-03
  | Found data for basic radial integration grid :    44 points, outermost radius =    7.000 A
  | Found multiplier for basic radial grid :   2
  | Found angular grid specification: user-specified.
  | Specified grid contains     5 separate shells.
  | Check grid settings after all constraints further below.
  | Found free-atom valence shell :  3 s   2.000
  | Found free-atom valence shell :  3 p   4.000
  | Found free-ion valence shell :  3 s   1.000
  | Found free-ion valence shell :  3 p   3.000
  | Found ionic basis function :  3 d , default cutoff radius.
  | Found hydrogenic basis function :  2 p   1.800
  | Found hydrogenic basis function :  4 f   7.000
  | Found ionic basis function :  3 s , default cutoff radius.
  | Found hydrogenic basis function :  4 d   6.200
  | Found hydrogenic basis function :  5 g  10.800
  Species S                   : Missing cutoff potential type.
  Defaulting to exp(1/x)/(1-x)^2 type cutoff potential.
  Species S : No 'logarithmic' tag. Using default grid for free atom:
  | Default logarithmic grid data [bohr] : 0.1000E-03 0.1000E+03 0.1012E+01
  | Will include ionic basis functions of  2.0-fold positive S                    ion.
  Species S : On-site basis accuracy parameter (for Gram-Schmidt orthonormalisation) not specified.
  Using default value basis_acc =  0.1000000E-03.
  Species S                   : Using default innermost maximum threshold i_radial=  2 for radial functions.
  Species S                   : Default cutoff onset for free atom density etc. : 0.50000000E+01 AA.
  Species S                   : Basic radial grid will be enhanced according to radial_multiplier =   2, to contain    89 grid points.
 
  Reading configuration options for species Mo                  .
  | Found nuclear charge :  42.0000
  | Found atomic mass :    95.9400000000000      amu
  | Found l_max for Hartree potential  :   6
  | Found cutoff potl. onset [A], width [A], scale factor :    5.00000    2.00000    1.00000
  | Threshold for basis-dependent cutoff potential is   0.100000E-03
  | Found data for basic radial integration grid :    59 points, outermost radius =    7.000 A
  | Found multiplier for basic radial grid :   2
  | Found angular grid specification: user-specified.
  | Specified grid contains     6 separate shells.
  | Check grid settings after all constraints further below.
  | Found free-atom valence shell :  5 s   1.000
  | Found free-atom valence shell :  4 p   6.000
  | Found free-atom valence shell :  4 d   5.000
  | Found free-ion valence shell :  5 s   0.000
  | Found free-ion valence shell :  4 p   6.000
  | Found free-ion valence shell :  4 d   4.000
  | Found hydrogenic basis function :  4 f   8.400
  | Found hydrogenic basis function :  3 d   2.800
  | Found ionic basis function :  5 p , default cutoff radius.
  | Found hydrogenic basis function :  5 g  12.000
  | Found ionic basis function :  5 s , default cutoff radius.
  Species Mo                  : Missing cutoff potential type.
  Defaulting to exp(1/x)/(1-x)^2 type cutoff potential.
  Species Mo: No 'logarithmic' tag. Using default grid for free atom:
  | Default logarithmic grid data [bohr] : 0.1000E-03 0.1000E+03 0.1012E+01
  | Will include ionic basis functions of  2.0-fold positive Mo                   ion.
  Species Mo: On-site basis accuracy parameter (for Gram-Schmidt orthonormalisation) not specified.
  Using default value basis_acc =  0.1000000E-03.
  Species Mo                  : Using default innermost maximum threshold i_radial=  2 for radial functions.
  Species Mo                  : Default cutoff onset for free atom density etc. : 0.50000000E+01 AA.
  Species Mo                  : Basic radial grid will be enhanced according to radial_multiplier =   2, to contain   119 grid points.
  Forces will be computed.
  Cleaning forces before final output.
 
  Finished reading input file 'control.in'.
 
------------------------------------------------------------


------------------------------------------------------------
          Reading geometry description geometry.in.
------------------------------------------------------------
  | The smallest distance between any two atoms is         2.37171611 AA.
  | The first atom of this pair is atom number                      4 .
  | The second atom of this pair is atom number                    62 .
  | Wigner-Seitz cell of the first atom image           1     0     0 .
  | (The Wigner-Seitz cell of the second atom is 0 0 0  by definition.)

  Symmetry information by spglib:
  | Precision set to  0.1E-04
  | Number of Operations  : 1
  | Space group           : 1
  | International         : P1
  | Schoenflies           : C1^1
  Input structure read successfully.
  The structure contains       74 atoms,  and a total of       1834.000 electrons.

  Input geometry:
  | Unit cell:
  |       15.80271867        0.00000000        0.00000000
  |       -7.87096434       13.65967927        0.00000000
  |        0.00000000        0.00000000      100.00000000
  | Atomic structure:
  |       Atom                x [A]            y [A]            z [A]
  |    1: Species Mo            3.91992955        7.77007443       49.57344400
  |    2: Species S             5.46047896        8.65448265       51.18431300
  |    3: Species S             5.54533106        8.62889930       48.04795300
  |    4: Species Mo            2.39508320       10.41611644       49.57331300
  |    5: Species S             3.93243404       11.30108513       51.18438100
  |    6: Species S             3.95434323       11.38999379       48.04792300
  |    7: Species Mo            0.82965251       13.18940124       49.65943600
  |    8: Species S            10.27368276        0.43552972       51.23765400
  |    9: Species S            10.27299949        0.46153939       48.10401200
  |   10: Species Mo            7.11649533        2.27683878       49.67702800
  |   11: Species S             8.69487233        3.18507345       51.24955200
  |   12: Species S             8.70116471        3.18861172       48.11599000
  |   13: Species Mo            5.53416098        5.02500069       49.65946700
  |   14: Species S             7.10787728        5.92986292       51.23754100
  |   15: Species S             7.12992364        5.91607840       48.10392200
  |   16: Species Mo            7.11228441        7.74174521       49.65840100
  |   17: Species S             8.69221006        8.65465941       51.23260000
  |   18: Species S             8.71114455        8.64272358       48.09982500
  |   19: Species Mo            5.52659748       10.45665973       49.61773100
  |   20: Species S             7.10594482       11.36534381       51.20710500
  |   21: Species S             7.13777721       11.38378069       48.08271100
  |   22: Species Mo            3.97281728       13.18982919       49.65857500
  |   23: Species S            13.42704434        0.43731504       51.23277000
  |   24: Species S            13.42621234        0.45979956       48.10003000
  |   25: Species Mo           10.27801644        2.27402502       49.68230200
  |   26: Species S            11.86413908        3.18496417       51.24906600
  |   27: Species S            11.85712295        3.18860516       48.11551700
  |   28: Species Mo            8.70091432        5.01104815       49.68221000
  |   29: Species S            10.28550686        5.92465176       51.24895100
  |   30: Species S            10.28520817        5.91658285       48.11540000
  |   31: Species Mo           10.29013567        7.74259334       49.67588800
  |   32: Species S            -3.91198262        8.65452951       51.23270500
  |   33: Species S            -3.93082395        8.64281975       48.10001300
  |   34: Species Mo            8.70954031       10.46912624       49.65829300
  |   35: Species S            -5.50511074       11.38073075       51.22311800
  |   36: Species S            -5.50487105       11.37971775       48.09385500
  |   37: Species Mo            7.13493931       13.20168593       49.65840000
  |   38: Species S             0.78943666        0.45682489       51.22321100
  |   39: Species S             0.78858754        0.45765649       48.09396300
  |   40: Species Mo           13.43963005        2.27673592       49.67611300
  |   41: Species S            -0.77026564        3.20237125       51.23289800
  |   42: Species S            -0.78991197        3.19189974       48.10026400
  |   43: Species Mo           11.86713093        5.01095185       49.68182800
  |   44: Species S            -2.33975855        5.92929892       51.23705700
  |   45: Species S            -2.36203991        5.91626772       48.10355400
  |   46: Species Mo           -2.33469770        7.74159154       49.65853700
  |   47: Species S            -0.67782894        8.65411084       51.18487800
  |   48: Species S            -0.76516299        8.62910816       48.04842100
  |   49: Species Mo           -3.91948435       10.46914236       49.65855500
  |   50: Species S            -2.31329280       11.36506952       51.20765300
  |   51: Species S            -2.34481049       11.38383765       48.08324500
  |   52: Species Mo           -5.50016914       13.20533621       49.65836700
  |   53: Species S             3.95449110        0.45685016       51.22359000
  |   54: Species S             3.95594110        0.45774760       48.09438000
  |   55: Species Mo            0.79618474        2.28533332       49.65872400
  |   56: Species S             2.37797197        3.22371559       51.20778300
  |   57: Species S             2.37829359        3.18705260       48.08338200
  |   58: Species Mo           -0.76885185        5.02431129       49.65874300
  |   59: Species S             0.85285271        5.99844107       51.18509800
  |   60: Species S             0.78713245        5.93502642       48.04851200
  |   61: Species Mo            0.85727787        7.76939308       49.57389000
  |   62: Species S             2.38940402        8.65070766       47.98954000
  |   63: Species Mo           -0.73634881       10.45650456       49.61833400
  |   64: Species S             0.86099899       11.29937903       51.18528800
  |   65: Species S             0.83823754       11.39021125       48.04831200
  |   66: Species Mo           -2.33261073       13.20161162       49.65907700
  |   67: Species S             7.11988328        0.43700469       51.23358000
  |   68: Species S             7.12073439        0.45979122       48.10104400
  |   69: Species Mo            3.95745595        2.28547470       49.65914000
  |   70: Species S             5.52612376        3.20293894       51.23360300
  |   71: Species S             5.54621268        3.19223221       48.10109100
  |   72: Species Mo            2.38294280        5.04316984       49.61847500
  |   73: Species S             3.91443259        6.00041175       51.18543900
  |   74: Species S             3.98147653        5.93512996       48.04843300

  Lattice parameters for 3D lattice (in Angstroms) :    15.802719   15.765117  100.000000
  Angle(s) between unit vectors (in degrees)       :    90.000000   90.000000  119.951356


  Quantities derived from the lattice vectors:
  | Reciprocal lattice vector 1:  0.397602  0.229105  0.000000
  | Reciprocal lattice vector 2: -0.000000  0.459980  0.000000
  | Reciprocal lattice vector 3:  0.000000  0.000000  0.062832
  | Unit cell volume                               :   0.215860E+05  A^3

  Fractional coordinates:
                         L1                L2                L3
       atom_frac         0.53137646        0.56883286        0.49573444  Mo
       atom_frac         0.66111123        0.63357876        0.51184313  S
       atom_frac         0.66554784        0.63170585        0.48047953  S
       atom_frac         0.53136715        0.76254473        0.49573313  Mo
       atom_frac         0.66091995        0.82733166        0.51184381  S
       atom_frac         0.66554827        0.83384050        0.48047923  S
       atom_frac         0.53342934        0.96557181        0.49659436  Mo
       atom_frac         0.66600206        0.03188433        0.51237654  S
       atom_frac         0.66690722        0.03378845        0.48104012  S
       atom_frac         0.53335460        0.16668318        0.49677028  Mo
       atom_frac         0.66635190        0.23317337        0.51249552  S
       atom_frac         0.66687910        0.23343240        0.48115990  S
       atom_frac         0.53343106        0.36787106        0.49659467  Mo
       atom_frac         0.66601046        0.43411436        0.51237541  S
       atom_frac         0.66690293        0.43310522        0.48103922  S
       atom_frac         0.73235650        0.56675893        0.49658401  Mo
       atom_frac         0.86562243        0.63359170        0.51232600  S
       atom_frac         0.86638539        0.63271790        0.48099825  S
       atom_frac         0.73100850        0.76551283        0.49617731  Mo
       atom_frac         0.86408359        0.83203592        0.51207105  S
       atom_frac         0.86677022        0.83338565        0.48082711  S
       atom_frac         0.73234520        0.96560314        0.49658575  Mo
       atom_frac         0.86561267        0.03201503        0.51232770  S
       atom_frac         0.86637988        0.03366108        0.48100030  S
       atom_frac         0.73331385        0.16647719        0.49682302  Mo
       atom_frac         0.86689991        0.23316537        0.51249066  S
       atom_frac         0.86658869        0.23343192        0.48115517  S
       atom_frac         0.73331525        0.36684962        0.49682210  Mo
       atom_frac         0.86690164        0.43373286        0.51248951  S
       atom_frac         0.86658852        0.43314215        0.48115400  S
       atom_frac         0.93348265        0.56682102        0.49675888  Mo
       atom_frac         0.06802122        0.63358219        0.51232705  S
       atom_frac         0.06640196        0.63272494        0.48100013  S
       atom_frac         0.93288049        0.76642548        0.49658293  Mo
       atom_frac         0.06661389        0.83316237        0.51223118  S
       atom_frac         0.06659212        0.83308821        0.48093855  S
       atom_frac         0.93287741        0.96647115        0.49658400  Mo
       atom_frac         0.06661308        0.03344331        0.51223211  S
       atom_frac         0.06658967        0.03350419        0.48093963  S
       atom_frac         0.93348040        0.16667565        0.49676113  Mo
       atom_frac         0.06802633        0.23443971        0.51232898  S
       atom_frac         0.06640128        0.23367311        0.48100264  S
       atom_frac         0.93367072        0.36684257        0.49681828  Mo
       atom_frac         0.06814113        0.43407307        0.51237057  S
       atom_frac         0.06625600        0.43311908        0.48103554  S
       atom_frac         0.13454350        0.56674768        0.49658537  Mo
       atom_frac         0.27266401        0.63355154        0.51184878  S
       atom_frac         0.26622581        0.63172114        0.48048421  S
       atom_frac         0.13371323        0.76642666        0.49658555  Mo
       atom_frac         0.26802187        0.83201584        0.51207653  S
       atom_frac         0.26671177        0.83338982        0.48083245  S
       atom_frac         0.13345768        0.96673838        0.49658367  Mo
       atom_frac         0.26689944        0.03344516        0.51223590  S
       atom_frac         0.26702392        0.03351086        0.48094380  S
       atom_frac         0.13371350        0.16730505        0.49658724  Mo
       atom_frac         0.26802588        0.23600229        0.51207783  S
       atom_frac         0.26670938        0.23331826        0.48083382  S
       atom_frac         0.13454969        0.36782059        0.49658743  Mo
       atom_frac         0.27269152        0.43913484        0.51185098  S
       atom_frac         0.26622042        0.43449237        0.48048512  S
       atom_frac         0.33754625        0.56878298        0.49573890  Mo
       atom_frac         0.46663519        0.63330240        0.47989540  S
       atom_frac         0.33468203        0.76550147        0.49618334  Mo
       atom_frac         0.46649656        0.82720676        0.51185288  S
       atom_frac         0.46836825        0.83385642        0.48048312  S
       atom_frac         0.33376576        0.96646571        0.49659077  Mo
       atom_frac         0.46648262        0.03199231        0.51233580  S
       atom_frac         0.46736735        0.03366047        0.48101044  S
       atom_frac         0.33376469        0.16731540        0.49659140  Mo
       atom_frac         0.46648413        0.23448127        0.51233603  S
       atom_frac         0.46736496        0.23369745        0.48101091  S
       atom_frac         0.33468369        0.36920119        0.49618475  Mo
       atom_frac         0.46650092        0.43927911        0.51185439  S
       atom_frac         0.46836309        0.43449995        0.48048433  S

 
  Finished reading input file 'control.in'.
 

------------------------------------------------------------
          Reading geometry description geometry.in.
------------------------------------------------------------
 
  Consistency checks for stacksize environment parameter are next.
 
  | Maximum stacksize for task 0: unlimited
  | Maximum stacksize for task 1: unlimited
  | Maximum stacksize for task 2: unlimited
  | Maximum stacksize for task 3: unlimited
  | Maximum stacksize for task 4: unlimited
  | Maximum stacksize for task 5: unlimited
  | Maximum stacksize for task 6: unlimited
  | Maximum stacksize for task 7: unlimited
  | Maximum stacksize for task 8: unlimited
  | Maximum stacksize for task 9: unlimited
  | Maximum stacksize for task 10: unlimited
  | Maximum stacksize for task 11: unlimited
  | Maximum stacksize for task 12: unlimited
  | Maximum stacksize for task 13: unlimited
  | Maximum stacksize for task 14: unlimited
  | Maximum stacksize for task 15: unlimited
  | Maximum stacksize for task 16: unlimited
  | Maximum stacksize for task 17: unlimited
  | Maximum stacksize for task 18: unlimited
  | Maximum stacksize for task 19: unlimited
  | Maximum stacksize for task 20: unlimited
  | Maximum stacksize for task 21: unlimited
  | Maximum stacksize for task 22: unlimited
  | Maximum stacksize for task 23: unlimited
  | Maximum stacksize for task 24: unlimited
  | Maximum stacksize for task 25: unlimited
  | Maximum stacksize for task 26: unlimited
  | Maximum stacksize for task 27: unlimited
  | Maximum stacksize for task 28: unlimited
  | Maximum stacksize for task 29: unlimited
  | Maximum stacksize for task 30: unlimited
  | Maximum stacksize for task 31: unlimited
  | Maximum stacksize for task 32: unlimited
  | Maximum stacksize for task 33: unlimited
  | Maximum stacksize for task 34: unlimited
  | Maximum stacksize for task 35: unlimited
  | Maximum stacksize for task 36: unlimited
  | Maximum stacksize for task 37: unlimited
  | Maximum stacksize for task 38: unlimited
  | Maximum stacksize for task 39: unlimited
  | Maximum stacksize for task 40: unlimited
  | Maximum stacksize for task 41: unlimited
  | Maximum stacksize for task 42: unlimited
  | Maximum stacksize for task 43: unlimited
  | Maximum stacksize for task 44: unlimited
  | Maximum stacksize for task 45: unlimited
  | Maximum stacksize for task 46: unlimited
  | Maximum stacksize for task 47: unlimited
  | Maximum stacksize for task 48: unlimited
  | Maximum stacksize for task 49: unlimited
  | Maximum stacksize for task 50: unlimited
  | Maximum stacksize for task 51: unlimited
  | Maximum stacksize for task 52: unlimited
  | Maximum stacksize for task 53: unlimited
  | Maximum stacksize for task 54: unlimited
  | Maximum stacksize for task 55: unlimited
  | Maximum stacksize for task 56: unlimited
  | Maximum stacksize for task 57: unlimited
  | Maximum stacksize for task 58: unlimited
  | Maximum stacksize for task 59: unlimited
  | Maximum stacksize for task 60: unlimited
  | Maximum stacksize for task 61: unlimited
  | Maximum stacksize for task 62: unlimited
  | Maximum stacksize for task 63: unlimited
  | Maximum stacksize for task 64: unlimited
  | Maximum stacksize for task 65: unlimited
  | Maximum stacksize for task 66: unlimited
  | Maximum stacksize for task 67: unlimited
  | Maximum stacksize for task 68: unlimited
  | Maximum stacksize for task 69: unlimited
  | Maximum stacksize for task 70: unlimited
  | Maximum stacksize for task 71: unlimited
  | Maximum stacksize for task 72: unlimited
  | Maximum stacksize for task 73: unlimited
  | Maximum stacksize for task 74: unlimited
  | Maximum stacksize for task 75: unlimited
  | Maximum stacksize for task 76: unlimited
  | Maximum stacksize for task 77: unlimited
  | Maximum stacksize for task 78: unlimited
  | Maximum stacksize for task 79: unlimited
  | Maximum stacksize for task 80: unlimited
  | Maximum stacksize for task 81: unlimited
  | Maximum stacksize for task 82: unlimited
  | Maximum stacksize for task 83: unlimited
  | Maximum stacksize for task 84: unlimited
  | Maximum stacksize for task 85: unlimited
  | Maximum stacksize for task 86: unlimited
  | Maximum stacksize for task 87: unlimited
  | Maximum stacksize for task 88: unlimited
  | Maximum stacksize for task 89: unlimited
  | Maximum stacksize for task 90: unlimited
  | Maximum stacksize for task 91: unlimited
  | Maximum stacksize for task 92: unlimited
  | Maximum stacksize for task 93: unlimited
  | Maximum stacksize for task 94: unlimited
  | Maximum stacksize for task 95: unlimited
  | Maximum stacksize for task 96: unlimited
  | Maximum stacksize for task 97: unlimited
  | Maximum stacksize for task 98: unlimited
  | Maximum stacksize for task 99: unlimited
  | Maximum stacksize for task 100: unlimited
  | Maximum stacksize for task 101: unlimited
  | Maximum stacksize for task 102: unlimited
  | Maximum stacksize for task 103: unlimited
  | Maximum stacksize for task 104: unlimited
  | Maximum stacksize for task 105: unlimited
  | Maximum stacksize for task 106: unlimited
  | Maximum stacksize for task 107: unlimited
  | Maximum stacksize for task 108: unlimited
  | Maximum stacksize for task 109: unlimited
  | Maximum stacksize for task 110: unlimited
  | Maximum stacksize for task 111: unlimited
  | Maximum stacksize for task 112: unlimited
  | Maximum stacksize for task 113: unlimited
  | Maximum stacksize for task 114: unlimited
  | Maximum stacksize for task 115: unlimited
  | Maximum stacksize for task 116: unlimited
  | Maximum stacksize for task 117: unlimited
  | Maximum stacksize for task 118: unlimited
  | Maximum stacksize for task 119: unlimited
  | Maximum stacksize for task 120: unlimited
  | Maximum stacksize for task 121: unlimited
  | Maximum stacksize for task 122: unlimited
  | Maximum stacksize for task 123: unlimited
  | Maximum stacksize for task 124: unlimited
  | Maximum stacksize for task 125: unlimited
  | Maximum stacksize for task 126: unlimited
  | Maximum stacksize for task 127: unlimited
  | Maximum stacksize for task 128: unlimited
  | Maximum stacksize for task 129: unlimited
  | Maximum stacksize for task 130: unlimited
  | Maximum stacksize for task 131: unlimited
  | Maximum stacksize for task 132: unlimited
  | Maximum stacksize for task 133: unlimited
  | Maximum stacksize for task 134: unlimited
  | Maximum stacksize for task 135: unlimited
  | Maximum stacksize for task 136: unlimited
  | Maximum stacksize for task 137: unlimited
  | Maximum stacksize for task 138: unlimited
  | Maximum stacksize for task 139: unlimited
  | Maximum stacksize for task 140: unlimited
  | Maximum stacksize for task 141: unlimited
  | Maximum stacksize for task 142: unlimited
  | Maximum stacksize for task 143: unlimited
  | Maximum stacksize for task 144: unlimited
  | Maximum stacksize for task 145: unlimited
  | Maximum stacksize for task 146: unlimited
  | Maximum stacksize for task 147: unlimited
  | Maximum stacksize for task 148: unlimited
  | Maximum stacksize for task 149: unlimited
  | Maximum stacksize for task 150: unlimited
  | Maximum stacksize for task 151: unlimited
  | Maximum stacksize for task 152: unlimited
  | Maximum stacksize for task 153: unlimited
  | Maximum stacksize for task 154: unlimited
  | Maximum stacksize for task 155: unlimited
  | Maximum stacksize for task 156: unlimited
  | Maximum stacksize for task 157: unlimited
  | Maximum stacksize for task 158: unlimited
  | Maximum stacksize for task 159: unlimited
  | Maximum stacksize for task 160: unlimited
  | Maximum stacksize for task 161: unlimited
  | Maximum stacksize for task 162: unlimited
  | Maximum stacksize for task 163: unlimited
  | Maximum stacksize for task 164: unlimited
  | Maximum stacksize for task 165: unlimited
  | Maximum stacksize for task 166: unlimited
  | Maximum stacksize for task 167: unlimited
  | Maximum stacksize for task 168: unlimited
  | Maximum stacksize for task 169: unlimited
  | Maximum stacksize for task 170: unlimited
  | Maximum stacksize for task 171: unlimited
  | Maximum stacksize for task 172: unlimited
  | Maximum stacksize for task 173: unlimited
  | Maximum stacksize for task 174: unlimited
  | Maximum stacksize for task 175: unlimited
  | Maximum stacksize for task 176: unlimited
  | Maximum stacksize for task 177: unlimited
  | Maximum stacksize for task 178: unlimited
  | Maximum stacksize for task 179: unlimited
  | Maximum stacksize for task 180: unlimited
  | Maximum stacksize for task 181: unlimited
  | Maximum stacksize for task 182: unlimited
  | Maximum stacksize for task 183: unlimited
  | Maximum stacksize for task 184: unlimited
  | Maximum stacksize for task 185: unlimited
  | Maximum stacksize for task 186: unlimited
  | Maximum stacksize for task 187: unlimited
  | Maximum stacksize for task 188: unlimited
  | Maximum stacksize for task 189: unlimited
  | Maximum stacksize for task 190: unlimited
  | Maximum stacksize for task 191: unlimited
  | Maximum stacksize for task 192: unlimited
  | Maximum stacksize for task 193: unlimited
  | Maximum stacksize for task 194: unlimited
  | Maximum stacksize for task 195: unlimited
  | Maximum stacksize for task 196: unlimited
  | Maximum stacksize for task 197: unlimited
  | Maximum stacksize for task 198: unlimited
  | Maximum stacksize for task 199: unlimited
  | Maximum stacksize for task 200: unlimited
  | Maximum stacksize for task 201: unlimited
  | Maximum stacksize for task 202: unlimited
  | Maximum stacksize for task 203: unlimited
  | Maximum stacksize for task 204: unlimited
  | Maximum stacksize for task 205: unlimited
  | Maximum stacksize for task 206: unlimited
  | Maximum stacksize for task 207: unlimited
  | Maximum stacksize for task 208: unlimited
  | Maximum stacksize for task 209: unlimited
  | Maximum stacksize for task 210: unlimited
  | Maximum stacksize for task 211: unlimited
  | Maximum stacksize for task 212: unlimited
  | Maximum stacksize for task 213: unlimited
  | Maximum stacksize for task 214: unlimited
  | Maximum stacksize for task 215: unlimited
  | Maximum stacksize for task 216: unlimited
  | Maximum stacksize for task 217: unlimited
  | Maximum stacksize for task 218: unlimited
  | Maximum stacksize for task 219: unlimited
  | Maximum stacksize for task 220: unlimited
  | Maximum stacksize for task 221: unlimited
  | Maximum stacksize for task 222: unlimited
  | Maximum stacksize for task 223: unlimited
  | Maximum stacksize for task 224: unlimited
  | Maximum stacksize for task 225: unlimited
  | Maximum stacksize for task 226: unlimited
  | Maximum stacksize for task 227: unlimited
  | Maximum stacksize for task 228: unlimited
  | Maximum stacksize for task 229: unlimited
  | Maximum stacksize for task 230: unlimited
  | Maximum stacksize for task 231: unlimited
  | Maximum stacksize for task 232: unlimited
  | Maximum stacksize for task 233: unlimited
  | Maximum stacksize for task 234: unlimited
  | Maximum stacksize for task 235: unlimited
  | Maximum stacksize for task 236: unlimited
  | Maximum stacksize for task 237: unlimited
  | Maximum stacksize for task 238: unlimited
  | Maximum stacksize for task 239: unlimited
  | Maximum stacksize for task 240: unlimited
  | Maximum stacksize for task 241: unlimited
  | Maximum stacksize for task 242: unlimited
  | Maximum stacksize for task 243: unlimited
  | Maximum stacksize for task 244: unlimited
  | Maximum stacksize for task 245: unlimited
  | Maximum stacksize for task 246: unlimited
  | Maximum stacksize for task 247: unlimited
  | Maximum stacksize for task 248: unlimited
  | Maximum stacksize for task 249: unlimited
  | Maximum stacksize for task 250: unlimited
  | Maximum stacksize for task 251: unlimited
  | Maximum stacksize for task 252: unlimited
  | Maximum stacksize for task 253: unlimited
  | Maximum stacksize for task 254: unlimited
  | Maximum stacksize for task 255: unlimited
  | Maximum stacksize for task 256: unlimited
  | Maximum stacksize for task 257: unlimited
  | Maximum stacksize for task 258: unlimited
  | Maximum stacksize for task 259: unlimited
  | Maximum stacksize for task 260: unlimited
  | Maximum stacksize for task 261: unlimited
  | Maximum stacksize for task 262: unlimited
  | Maximum stacksize for task 263: unlimited
  | Maximum stacksize for task 264: unlimited
  | Maximum stacksize for task 265: unlimited
  | Maximum stacksize for task 266: unlimited
  | Maximum stacksize for task 267: unlimited
  | Maximum stacksize for task 268: unlimited
  | Maximum stacksize for task 269: unlimited
  | Maximum stacksize for task 270: unlimited
  | Maximum stacksize for task 271: unlimited
  | Maximum stacksize for task 272: unlimited
  | Maximum stacksize for task 273: unlimited
  | Maximum stacksize for task 274: unlimited
  | Maximum stacksize for task 275: unlimited
  | Maximum stacksize for task 276: unlimited
  | Maximum stacksize for task 277: unlimited
  | Maximum stacksize for task 278: unlimited
  | Maximum stacksize for task 279: unlimited
  | Maximum stacksize for task 280: unlimited
  | Maximum stacksize for task 281: unlimited
  | Maximum stacksize for task 282: unlimited
  | Maximum stacksize for task 283: unlimited
  | Maximum stacksize for task 284: unlimited
  | Maximum stacksize for task 285: unlimited
  | Maximum stacksize for task 286: unlimited
  | Maximum stacksize for task 287: unlimited
  | Current stacksize for task 0: unlimited
  | Current stacksize for task 1: unlimited
  | Current stacksize for task 2: unlimited
  | Current stacksize for task 3: unlimited
  | Current stacksize for task 4: unlimited
  | Current stacksize for task 5: unlimited
  | Current stacksize for task 6: unlimited
  | Current stacksize for task 7: unlimited
  | Current stacksize for task 8: unlimited
  | Current stacksize for task 9: unlimited
  | Current stacksize for task 10: unlimited
  | Current stacksize for task 11: unlimited
  | Current stacksize for task 12: unlimited
  | Current stacksize for task 13: unlimited
  | Current stacksize for task 14: unlimited
  | Current stacksize for task 15: unlimited
  | Current stacksize for task 16: unlimited
  | Current stacksize for task 17: unlimited
  | Current stacksize for task 18: unlimited
  | Current stacksize for task 19: unlimited
  | Current stacksize for task 20: unlimited
  | Current stacksize for task 21: unlimited
  | Current stacksize for task 22: unlimited
  | Current stacksize for task 23: unlimited
  | Current stacksize for task 24: unlimited
  | Current stacksize for task 25: unlimited
  | Current stacksize for task 26: unlimited
  | Current stacksize for task 27: unlimited
  | Current stacksize for task 28: unlimited
  | Current stacksize for task 29: unlimited
  | Current stacksize for task 30: unlimited
  | Current stacksize for task 31: unlimited
  | Current stacksize for task 32: unlimited
  | Current stacksize for task 33: unlimited
  | Current stacksize for task 34: unlimited
  | Current stacksize for task 35: unlimited
  | Current stacksize for task 36: unlimited
  | Current stacksize for task 37: unlimited
  | Current stacksize for task 38: unlimited
  | Current stacksize for task 39: unlimited
  | Current stacksize for task 40: unlimited
  | Current stacksize for task 41: unlimited
  | Current stacksize for task 42: unlimited
  | Current stacksize for task 43: unlimited
  | Current stacksize for task 44: unlimited
  | Current stacksize for task 45: unlimited
  | Current stacksize for task 46: unlimited
  | Current stacksize for task 47: unlimited
  | Current stacksize for task 48: unlimited
  | Current stacksize for task 49: unlimited
  | Current stacksize for task 50: unlimited
  | Current stacksize for task 51: unlimited
  | Current stacksize for task 52: unlimited
  | Current stacksize for task 53: unlimited
  | Current stacksize for task 54: unlimited
  | Current stacksize for task 55: unlimited
  | Current stacksize for task 56: unlimited
  | Current stacksize for task 57: unlimited
  | Current stacksize for task 58: unlimited
  | Current stacksize for task 59: unlimited
  | Current stacksize for task 60: unlimited
  | Current stacksize for task 61: unlimited
  | Current stacksize for task 62: unlimited
  | Current stacksize for task 63: unlimited
  | Current stacksize for task 64: unlimited
  | Current stacksize for task 65: unlimited
  | Current stacksize for task 66: unlimited
  | Current stacksize for task 67: unlimited
  | Current stacksize for task 68: unlimited
  | Current stacksize for task 69: unlimited
  | Current stacksize for task 70: unlimited
  | Current stacksize for task 71: unlimited
  | Current stacksize for task 72: unlimited
  | Current stacksize for task 73: unlimited
  | Current stacksize for task 74: unlimited
  | Current stacksize for task 75: unlimited
  | Current stacksize for task 76: unlimited
  | Current stacksize for task 77: unlimited
  | Current stacksize for task 78: unlimited
  | Current stacksize for task 79: unlimited
  | Current stacksize for task 80: unlimited
  | Current stacksize for task 81: unlimited
  | Current stacksize for task 82: unlimited
  | Current stacksize for task 83: unlimited
  | Current stacksize for task 84: unlimited
  | Current stacksize for task 85: unlimited
  | Current stacksize for task 86: unlimited
  | Current stacksize for task 87: unlimited
  | Current stacksize for task 88: unlimited
  | Current stacksize for task 89: unlimited
  | Current stacksize for task 90: unlimited
  | Current stacksize for task 91: unlimited
  | Current stacksize for task 92: unlimited
  | Current stacksize for task 93: unlimited
  | Current stacksize for task 94: unlimited
  | Current stacksize for task 95: unlimited
  | Current stacksize for task 96: unlimited
  | Current stacksize for task 97: unlimited
  | Current stacksize for task 98: unlimited
  | Current stacksize for task 99: unlimited
  | Current stacksize for task 100: unlimited
  | Current stacksize for task 101: unlimited
  | Current stacksize for task 102: unlimited
  | Current stacksize for task 103: unlimited
  | Current stacksize for task 104: unlimited
  | Current stacksize for task 105: unlimited
  | Current stacksize for task 106: unlimited
  | Current stacksize for task 107: unlimited
  | Current stacksize for task 108: unlimited
  | Current stacksize for task 109: unlimited
  | Current stacksize for task 110: unlimited
  | Current stacksize for task 111: unlimited
  | Current stacksize for task 112: unlimited
  | Current stacksize for task 113: unlimited
  | Current stacksize for task 114: unlimited
  | Current stacksize for task 115: unlimited
  | Current stacksize for task 116: unlimited
  | Current stacksize for task 117: unlimited
  | Current stacksize for task 118: unlimited
  | Current stacksize for task 119: unlimited
  | Current stacksize for task 120: unlimited
  | Current stacksize for task 121: unlimited
  | Current stacksize for task 122: unlimited
  | Current stacksize for task 123: unlimited
  | Current stacksize for task 124: unlimited
  | Current stacksize for task 125: unlimited
  | Current stacksize for task 126: unlimited
  | Current stacksize for task 127: unlimited
  | Current stacksize for task 128: unlimited
  | Current stacksize for task 129: unlimited
  | Current stacksize for task 130: unlimited
  | Current stacksize for task 131: unlimited
  | Current stacksize for task 132: unlimited
  | Current stacksize for task 133: unlimited
  | Current stacksize for task 134: unlimited
  | Current stacksize for task 135: unlimited
  | Current stacksize for task 136: unlimited
  | Current stacksize for task 137: unlimited
  | Current stacksize for task 138: unlimited
  | Current stacksize for task 139: unlimited
  | Current stacksize for task 140: unlimited
  | Current stacksize for task 141: unlimited
  | Current stacksize for task 142: unlimited
  | Current stacksize for task 143: unlimited
  | Current stacksize for task 144: unlimited
  | Current stacksize for task 145: unlimited
  | Current stacksize for task 146: unlimited
  | Current stacksize for task 147: unlimited
  | Current stacksize for task 148: unlimited
  | Current stacksize for task 149: unlimited
  | Current stacksize for task 150: unlimited
  | Current stacksize for task 151: unlimited
  | Current stacksize for task 152: unlimited
  | Current stacksize for task 153: unlimited
  | Current stacksize for task 154: unlimited
  | Current stacksize for task 155: unlimited
  | Current stacksize for task 156: unlimited
  | Current stacksize for task 157: unlimited
  | Current stacksize for task 158: unlimited
  | Current stacksize for task 159: unlimited
  | Current stacksize for task 160: unlimited
  | Current stacksize for task 161: unlimited
  | Current stacksize for task 162: unlimited
  | Current stacksize for task 163: unlimited
  | Current stacksize for task 164: unlimited
  | Current stacksize for task 165: unlimited
  | Current stacksize for task 166: unlimited
  | Current stacksize for task 167: unlimited
  | Current stacksize for task 168: unlimited
  | Current stacksize for task 169: unlimited
  | Current stacksize for task 170: unlimited
  | Current stacksize for task 171: unlimited
  | Current stacksize for task 172: unlimited
  | Current stacksize for task 173: unlimited
  | Current stacksize for task 174: unlimited
  | Current stacksize for task 175: unlimited
  | Current stacksize for task 176: unlimited
  | Current stacksize for task 177: unlimited
  | Current stacksize for task 178: unlimited
  | Current stacksize for task 179: unlimited
  | Current stacksize for task 180: unlimited
  | Current stacksize for task 181: unlimited
  | Current stacksize for task 182: unlimited
  | Current stacksize for task 183: unlimited
  | Current stacksize for task 184: unlimited
  | Current stacksize for task 185: unlimited
  | Current stacksize for task 186: unlimited
  | Current stacksize for task 187: unlimited
  | Current stacksize for task 188: unlimited
  | Current stacksize for task 189: unlimited
  | Current stacksize for task 190: unlimited
  | Current stacksize for task 191: unlimited
  | Current stacksize for task 192: unlimited
  | Current stacksize for task 193: unlimited
  | Current stacksize for task 194: unlimited
  | Current stacksize for task 195: unlimited
  | Current stacksize for task 196: unlimited
  | Current stacksize for task 197: unlimited
  | Current stacksize for task 198: unlimited
  | Current stacksize for task 199: unlimited
  | Current stacksize for task 200: unlimited
  | Current stacksize for task 201: unlimited
  | Current stacksize for task 202: unlimited
  | Current stacksize for task 203: unlimited
  | Current stacksize for task 204: unlimited
  | Current stacksize for task 205: unlimited
  | Current stacksize for task 206: unlimited
  | Current stacksize for task 207: unlimited
  | Current stacksize for task 208: unlimited
  | Current stacksize for task 209: unlimited
  | Current stacksize for task 210: unlimited
  | Current stacksize for task 211: unlimited
  | Current stacksize for task 212: unlimited
  | Current stacksize for task 213: unlimited
  | Current stacksize for task 214: unlimited
  | Current stacksize for task 215: unlimited
  | Current stacksize for task 216: unlimited
  | Current stacksize for task 217: unlimited
  | Current stacksize for task 218: unlimited
  | Current stacksize for task 219: unlimited
  | Current stacksize for task 220: unlimited
  | Current stacksize for task 221: unlimited
  | Current stacksize for task 222: unlimited
  | Current stacksize for task 223: unlimited
  | Current stacksize for task 224: unlimited
  | Current stacksize for task 225: unlimited
  | Current stacksize for task 226: unlimited
  | Current stacksize for task 227: unlimited
  | Current stacksize for task 228: unlimited
  | Current stacksize for task 229: unlimited
  | Current stacksize for task 230: unlimited
  | Current stacksize for task 231: unlimited
  | Current stacksize for task 232: unlimited
  | Current stacksize for task 233: unlimited
  | Current stacksize for task 234: unlimited
  | Current stacksize for task 235: unlimited
  | Current stacksize for task 236: unlimited
  | Current stacksize for task 237: unlimited
  | Current stacksize for task 238: unlimited
  | Current stacksize for task 239: unlimited
  | Current stacksize for task 240: unlimited
  | Current stacksize for task 241: unlimited
  | Current stacksize for task 242: unlimited
  | Current stacksize for task 243: unlimited
  | Current stacksize for task 244: unlimited
  | Current stacksize for task 245: unlimited
  | Current stacksize for task 246: unlimited
  | Current stacksize for task 247: unlimited
  | Current stacksize for task 248: unlimited
  | Current stacksize for task 249: unlimited
  | Current stacksize for task 250: unlimited
  | Current stacksize for task 251: unlimited
  | Current stacksize for task 252: unlimited
  | Current stacksize for task 253: unlimited
  | Current stacksize for task 254: unlimited
  | Current stacksize for task 255: unlimited
  | Current stacksize for task 256: unlimited
  | Current stacksize for task 257: unlimited
  | Current stacksize for task 258: unlimited
  | Current stacksize for task 259: unlimited
  | Current stacksize for task 260: unlimited
  | Current stacksize for task 261: unlimited
  | Current stacksize for task 262: unlimited
  | Current stacksize for task 263: unlimited
  | Current stacksize for task 264: unlimited
  | Current stacksize for task 265: unlimited
  | Current stacksize for task 266: unlimited
  | Current stacksize for task 267: unlimited
  | Current stacksize for task 268: unlimited
  | Current stacksize for task 269: unlimited
  | Current stacksize for task 270: unlimited
  | Current stacksize for task 271: unlimited
  | Current stacksize for task 272: unlimited
  | Current stacksize for task 273: unlimited
  | Current stacksize for task 274: unlimited
  | Current stacksize for task 275: unlimited
  | Current stacksize for task 276: unlimited
  | Current stacksize for task 277: unlimited
  | Current stacksize for task 278: unlimited
  | Current stacksize for task 279: unlimited
  | Current stacksize for task 280: unlimited
  | Current stacksize for task 281: unlimited
  | Current stacksize for task 282: unlimited
  | Current stacksize for task 283: unlimited
  | Current stacksize for task 284: unlimited
  | Current stacksize for task 285: unlimited
  | Current stacksize for task 286: unlimited
  | Current stacksize for task 287: unlimited
 
  Consistency checks for the contents of control.in are next.
 
  MPI_IN_PLACE appears to work with this MPI implementation.
  | Keeping use_mpi_in_place .true. (see manual).
  Target number of points in a grid batch is not set. Defaulting to  100
  Method for grid partitioning is not set. Defaulting to parallel hash+maxmin partitioning.
  Batch size limit is not set. Defaulting to    200
  By default, will store active basis functions for each batch.
  If in need of memory, prune_basis_once .false. can be used to disable this option.
  communication_type for Hartree potential was not specified.
  Defaulting to calc_hartree .
  Pulay mixer: Number of initial linear mixing iterations not set.
  Defaulting to    0 iterations.
  Work space size for distributed Hartree potential not set.
  Defaulting to   0.200000E+03 MB.
  Algorithm-dependent basis array size parameters:
  | n_max_pulay                         :       12
  Maximum number of self-consistency iterations not provided.
  Presetting  1000 iterations.
  Presetting      1001 iterations before the initial mixing cycle
  is restarted anyway using the sc_init_iter criterion / keyword.
  Presetting a factor      1.000 between actual scf density residual
  and density convergence criterion sc_accuracy_rho below which sc_init_iter
  takes no effect.
 * No s.c.f. convergence criteria (sc_accuracy_*) were provided in control.in.
 * The run will proceed with a reasonable default guess, but please check whether.
 * the s.c.f. cycles seem to take too much or too little time.
  Geometry relaxation not requested: no relaxation will be performed.
  Forces evaluation will include force correction term due to incomplete self-consistency (default).
 * Notice: The s.c.f. convergence criterion sc_accuracy_rho was not provided.
 * We used to stop in this case, and ask the user to provide reasonable
 * scf convergence criteria. However, this led some users to employ criteria
 * that led to extremely long run times, e.g., for simple relaxation.
 * We now preset a default value for sc_accuracy_rho if it is not set.
 * You may still wish to check if this setting is too tight or too loose for your needs.
 * Based on n_atoms and forces and force-correction status, FHI-aims chose sc_accuracy_rho =  0.280951E-04 .
  Force calculation: scf convergence accuracy of forces not set.
  Defaulting to 'sc_accuracy_forces not_checked'.
  Handling of forces: Unphysical translation and rotation will be removed from forces.
  No accuracy limit for integral partition fn. given. Defaulting to  0.1000E-14.
  No threshold value for u(r) in integrations given. Defaulting to  0.1000E-05.
  No accuracy for occupation numbers given. Defaulting to  0.1000E-12.
  No threshold value for occupation numbers given. Defaulting to  0.0000E+00.
  No accuracy for fermi level given. Defaulting to  0.1000E-19.
  Maximum # of iterations to find E_F not set. Defaulting to  200.
  Preferred method for the eigenvalue solver ('KS_method') not specified in 'control.in'.
  Calling BLACS routine to test compilation state
  Since ScaLAPACK support is enabled, defaulting to ELPA (via ELSI).
  Will not use alltoall communication since running on < 1024 CPUs.
  Threshold for basis singularities not set.
  Default threshold for basis singularities:  0.1000E-04
  partition_type (choice of integration weights) for integrals was not specified.
  | Using a version of the partition function of Stratmann and coworkers ('stratmann_sparse').
  | At each grid point, the set of atoms used to build the partition table is smoothly restricted to
  | only those atoms whose free-atom density would be non-zero at that grid point.
  Partitioning for Hartree potential was not defined. Using partition_type for integrals.
  | Adjusted default value of keyword multip_moments_threshold to:       0.10000000E-11
  | This value may affect high angular momentum components of the Hartree potential in periodic systems.
  Angular momentum expansion for Kerker preconditioner not set explicitly.
  | Using default value of   0
  No explicit requirement for turning off preconditioner.
  | By default, it will be turned off when the charge convergence reaches
  | sc_accuracy_rho  =   0.280951E-04
  No special mixing parameter while Kerker preconditioner is on.
  Using default: charge_mix_param =     0.1000.
  No q(lm)/r^(l+1) cutoff set for long-range Hartree potential.
  | Using default value of  0.100000E-09 .
  | Verify using the multipole_threshold keyword.
  Defaulting to new monopole extrapolation.
  Density update method: automatic selection selected.
  Using density matrix based charge density update.
  Using density matrix based charge density update.
  Using packed matrix style: index .
  Defaulting to use time-reversal symmetry for k-point grid.
  Charge integration errors on the 3D integration grid will be compensated
  by explicit normalization and distribution of residual charges.
  Use the "compensate_multipole_errors" flag to change this behaviour.
 
  Consistency checks for the contents of geometry.in are next.
 

  Range separation radius for Ewald summation (hartree_convergence_parameter):      5.00000000 bohr.
  Number of empty states per atom not set in control.in - providing a guess from actual geometry.
  | Total number of empty states used during s.c.f. cycle:      285
  If you use a very high smearing, use empty_states (per atom!) in control.in to increase this value.

  Structure-dependent array size parameters: 
  | Maximum number of distinct radial functions  :       26
  | Maximum number of basis functions            :     3136
  | Number of Kohn-Sham states (occupied + empty):     1202
------------------------------------------------------------
 Error: The dipole correction needs vacuum z-level to be defined
 Vacuum level will be determined automatically.
 Determine position of vacuum level automatically
 **WARNING** : This feature is experimental and still requires some testing
[...]
   Hartree pot. SCF incomplete   :  0.683551E-04 -0.264670E-04 -0.516047E-04
   Pulay + GGA                   :  0.897944E-01 -0.316348E+00 -0.204110E-01
   Van der Waals                 : -0.396549E-03 -0.243947E-03 -0.156648E-02
   ----------------------------------------------------------------
   Total forces(  69)            :  0.367572E-03  0.506883E-03 -0.529684E-04
  atom #   70
   Hellmann-Feynman              : -0.187950E+00  0.127259E+00  0.247916E+02
   Ionic forces                  :  0.000000E+00  0.000000E+00  0.000000E+00
   Multipole                     :  0.146543E-02 -0.187645E-02  0.594610E-01
   Hartree pot. SCF incomplete   :  0.965977E-05  0.262819E-04 -0.130374E-03
   Pulay + GGA                   :  0.185558E+00 -0.125547E+00 -0.247620E+02
   Van der Waals                 :  0.839881E-03  0.262357E-03 -0.889242E-01
   ----------------------------------------------------------------
   Total forces(  70)            : -0.768004E-04  0.124012E-03  0.928706E-04
  atom #   71
   Hellmann-Feynman              :  0.256383E+00 -0.647096E-01 -0.248215E+02
   Ionic forces                  :  0.000000E+00  0.000000E+00  0.000000E+00
   Multipole                     :  0.956254E-03  0.594373E-03 -0.561415E-01
   Hartree pot. SCF incomplete   : -0.964261E-05  0.124712E-04  0.147602E-03
   Pulay + GGA                   : -0.256728E+00  0.633384E-01  0.247890E+02
   Van der Waals                 : -0.644235E-03  0.696421E-03  0.884277E-01
   ----------------------------------------------------------------
   Total forces(  71)            : -0.424802E-04 -0.679663E-04 -0.101547E-03
  atom #   72
   Hellmann-Feynman              :  0.218808E-01  0.567112E+00 -0.100854E+01
   Ionic forces                  :  0.000000E+00  0.000000E+00  0.000000E+00
   Multipole                     : -0.958836E-03 -0.256194E-01 -0.241021E-01
   Hartree pot. SCF incomplete   :  0.999494E-05  0.681583E-04 -0.353078E-04
   Pulay + GGA                   : -0.209855E-01 -0.511889E+00  0.103911E+01
   Van der Waals                 :  0.603871E-04 -0.301517E-01 -0.670592E-02
   ----------------------------------------------------------------
   Total forces(  72)            :  0.685458E-05 -0.480439E-03 -0.273361E-03
  atom #   73
   Hellmann-Feynman              : -0.607289E+00  0.695201E+00  0.242698E+02
   Ionic forces                  :  0.000000E+00  0.000000E+00  0.000000E+00
   Multipole                     :  0.226079E-01 -0.200934E-01  0.303167E-01
   Hartree pot. SCF incomplete   : -0.708154E-04 -0.145260E-04 -0.980875E-04
   Pulay + GGA                   :  0.582266E+00 -0.671514E+00 -0.242084E+02
   Van der Waals                 :  0.303287E-02 -0.160544E-02 -0.912186E-01
   ----------------------------------------------------------------
   Total forces(  73)            :  0.547033E-03  0.197322E-02  0.402436E-03
  atom #   74
   Hellmann-Feynman              :  0.567417E+00 -0.386979E+00 -0.248393E+02
   Ionic forces                  :  0.000000E+00  0.000000E+00  0.000000E+00
   Multipole                     :  0.241689E-01 -0.130343E-02 -0.659192E-01
   Hartree pot. SCF incomplete   : -0.567253E-04  0.377917E-04  0.985384E-04
   Pulay + GGA                   : -0.591223E+00  0.389303E+00  0.248179E+02
   Van der Waals                 : -0.510084E-03  0.514982E-03  0.880303E-01
   ----------------------------------------------------------------
   Total forces(  74)            : -0.203766E-03  0.157268E-02  0.809348E-03

  Timings for VdW correction (Tkatchenko-Scheffler 2009 or later):
  | CPU time:        5.636 s, Wall clock time:        5.637 s.
  Removing unitary transformations (pure translations, rotations) from forces on atoms.
  Atomic forces before filtering:
  | Net force on center of mass :  -0.256256E-03  0.920489E-02 -0.458130E-03 eV/A
  Atomic forces after filtering:
  | Net force on center of mass :  -0.309249E-17  0.696899E-18 -0.174225E-18 eV/A

  Energy and forces in a compact form:
  | Total energy uncorrected      :         -0.331405166066944E+07 eV
  | Total energy corrected        :         -0.331405166066944E+07 eV  <-- do not rely on this value for anything but (periodic) metals
  | Electronic free energy        :         -0.331405166066944E+07 eV
  Total atomic forces (unitary forces cleaned) [eV/Ang]:
  |    1          0.100394809772580E-01          0.300978332111907E-02          0.697867903167960E-02
  |    2         -0.243591470332141E-01         -0.102844094773762E-02         -0.553705372405155E-03
  |    3         -0.798456771845789E-03         -0.208680699513347E-04          0.113407586725993E-04
  |    4         -0.344855802649174E-03         -0.115732769926595E-03         -0.266956585279365E-03
  |    5          0.141386421860316E-03         -0.153160714517664E-02          0.567230491685026E-03
  |    6         -0.610563258414966E-03         -0.103846014655462E-03         -0.162322500745464E-03
  |    7         -0.195763226585774E-03         -0.168151939425211E-03          0.107858929725015E-03
  |    8          0.469679848455979E-04          0.467165499781564E-04          0.266901479425059E-03
  |    9          0.157144280641687E-04          0.919718403954863E-04         -0.109964412545547E-03
  |   10          0.573898056030400E-03          0.332470058411523E-03         -0.821930857231402E-04
  |   11         -0.356355535714072E-04         -0.131863058263649E-04          0.352324892338290E-03
  |   12          0.238314256898940E-06         -0.637953402240771E-04         -0.465344882573185E-04
  |   13         -0.135020458905026E-02         -0.679582498225441E-04          0.228388278511467E-03
  |   14          0.251941627071430E-03         -0.697605140871656E-03          0.184435915458710E-03
  |   15         -0.104902903953182E-03         -0.683726137748853E-03         -0.753890489416305E-03
  |   16          0.950983764584911E-02         -0.305169725974727E-02         -0.644447405510129E-02
  |   17          0.136457653337581E-02         -0.173884173008156E-03         -0.155490557445359E-03
  |   18          0.507764123468144E-03          0.424651862329102E-03         -0.501476965623177E-03
  |   19          0.438123079600533E-02          0.112889968009609E-03         -0.305477865395278E-03
  |   20         -0.116213193533128E-04          0.842474457853954E-03         -0.661101262417326E-04
  |   21         -0.355231796052046E-03          0.960660255601350E-05         -0.722787853685150E-04
  |   22          0.186521116076867E-03         -0.835097455726630E-03          0.812968770837530E-04
  |   23         -0.126404706777838E-03         -0.258253270304275E-04          0.697537219366844E-04
  |   24          0.510078280727219E-04          0.864994767807858E-04         -0.450414698836351E-04
  |   25         -0.183789874504599E-03         -0.183213364589832E-03         -0.881068612972278E-04
  |   26          0.218956107460213E-04         -0.188753750357931E-04          0.311109766068777E-03
  |   27         -0.566672162441852E-04          0.156079287698095E-04         -0.699794076578851E-05
  |   28         -0.269138922822598E-03         -0.175744302311177E-04         -0.124878478814305E-03
  |   29         -0.662235999346074E-04          0.416575202675133E-04          0.303063436923653E-03
  |   30          0.137821202896034E-04         -0.656290889694379E-04          0.177133893833671E-04
  |   31          0.225488774354287E-03         -0.123199282948662E-03         -0.156608451526355E-03
  |   32          0.145668039913235E-03          0.625928299836843E-05          0.949594562551635E-04
  |   33         -0.203641394530214E-06          0.164337770757050E-03         -0.894146617612721E-04
  |   34          0.557810334452960E-03          0.801255020815041E-03         -0.560189808921709E-03
  |   35         -0.925150264619143E-05          0.137272582364486E-03          0.231055502603370E-03
  |   36          0.860937219718540E-04         -0.509972748641685E-05         -0.452290095890389E-03
  |   37          0.521181696093983E-03          0.502253522278128E-03         -0.145590457144386E-03
  |   38          0.183905661021843E-03         -0.294453414930158E-04          0.215311411989902E-03
  |   39         -0.213068002673663E-05          0.596826276525279E-04         -0.428295766459178E-03
  |   40         -0.966096561787583E-04          0.219942972635653E-03         -0.395662745376744E-04
  |   41          0.101415689718033E-03          0.913302882993006E-04          0.122107947604641E-03
  |   42          0.116209667469829E-03         -0.122058025885495E-03         -0.954327374955132E-04
  |   43          0.230866330266837E-03          0.393765518634854E-04         -0.805691182272917E-04
  |   44          0.556332068888452E-04          0.714109498407089E-04          0.271828862856221E-03
  |   45          0.529400628905667E-05          0.445898735868372E-04         -0.131966924918050E-03
  |   46          0.612304177814880E-04          0.263308995797128E-03          0.104926964932676E-03
  |   47         -0.279744531599730E-04         -0.359461912411297E-03          0.140593713429335E-03
  |   48          0.918526055473590E-04         -0.191440857507062E-03          0.995242440194531E-04
  |   49         -0.427824356707137E-03         -0.392079291202489E-03         -0.133572070566747E-03
  |   50          0.925599864409619E-04         -0.435339802366801E-04          0.784727253104571E-04
  |   51         -0.643666470420902E-04          0.309632683681461E-04         -0.122557634229951E-03
  |   52         -0.352590611321209E-03         -0.371085309409543E-03          0.461513331871145E-03
  |   53         -0.124237529639974E-03         -0.474521243833105E-04          0.165898660713985E-03
  |   54          0.326049484906325E-04          0.405240609860866E-04         -0.362469628258542E-03
  |   55         -0.640614072503362E-03          0.134175955908376E-03         -0.113611943114259E-03
  |   56          0.179993515241811E-04          0.116215623250904E-04          0.120200590701269E-03
  |   57         -0.348817899749966E-04         -0.952408178972037E-04         -0.163962017548638E-03
  |   58          0.239041643997450E-03         -0.282884119526847E-03          0.831039445632433E-04
  |   59         -0.316994729482868E-03          0.205648260379564E-03          0.154771821963972E-03
  |   60         -0.119990126954857E-03          0.227659712200601E-03          0.127025902340379E-03
  |   61          0.148416703884139E-04          0.139767458135388E-03         -0.610840910310124E-03
  |   62          0.311751819768052E-03         -0.410488592290054E-03          0.711132186759078E-03
  |   63         -0.285307046761730E-03          0.266076233339278E-03         -0.264510777655964E-03
  |   64          0.261190163154045E-03          0.669127740390009E-04          0.166332585833508E-03
  |   65          0.247385955090167E-03         -0.165484104257441E-03          0.647105890548429E-04
  |   66          0.191592309116849E-03          0.792648123762370E-04         -0.971354957055247E-04
  |   67          0.210933884125545E-04         -0.459276800657056E-04          0.791530323135965E-04
  |   68         -0.166562115051470E-03          0.515885999829742E-04         -0.521595207742475E-04
  |   69          0.371034679191675E-03          0.382492929157567E-03         -0.467774203292696E-04
  |   70         -0.733374593651488E-04         -0.378625742754608E-06          0.990615043078753E-04
  |   71         -0.390172973493234E-04         -0.192356697087972E-03         -0.953559597858558E-04
  |   72          0.103174986857481E-04         -0.604829124994362E-03         -0.267170178675602E-03
  |   73          0.550496131917598E-03          0.184882757174882E-02          0.408627025414797E-03
  |   74         -0.200302990684129E-03          0.144828692622448E-02          0.815538920414245E-03

  ------------------------------------ 
  Start decomposition of the XC Energy 
  ------------------------------------ 
  X and C from original XC functional choice 
  Hartree-Fock Energy :          0.000000000 Ha              0.000000000 eV
  X Energy            :      -4277.813242555 Ha        -116405.220962366 eV
  C Energy            :        -86.374415298 Ha          -2350.367425633 eV
  Total XC Energy     :      -4364.187657853 Ha        -118755.588387999 eV
  ------------------------------------ 
  LDA X and C from self-consistent density 
  X Energy LDA        :      -4040.905694385 Ha        -109958.638578162 eV
  C Energy LDA        :       -158.982584518 Ha          -4326.136236130 eV
  ------------------------------------ 
  End decomposition of the XC Energy 
  ------------------------------------ 

------------------------------------------------------------
  | Chemical Potential                          :    -5.31822583 eV

  Writing energy levels:
  | Potential vacuum level, "upper" slab surface:    -0.04720987 eV
  | Potential vacuum level, "lower" slab surface:    -0.05449037 eV
  | Work function ("upper" slab surface)        :     5.27101595 eV
  | Work function ("lower" slab surface)        :     5.26373546 eV
  *** Warning: band gap may exist, check the suitability to define work function using chemical potential.
  | VBM (reference: upper vacuum level)         :     5.89605700 eV
  | CBM (reference: upper vacuum level)         :     4.70730493 eV

------------------------------------------------------------------------------
  Final output of selected total energy values:

  The following output summarizes some interesting total energy values
  at the end of a run (AFTER all relaxation, molecular dynamics, etc.).

  | Total energy of the DFT / Hartree-Fock s.c.f. calculation      :       -3314051.660669444 eV
  | Final zero-broadening corrected energy (caution - metals only) :       -3314051.660669444 eV
  | For reference only, the value of 1 Hartree used in FHI-aims is :             27.211384500 eV
  | For reference only, the overall average (free atom contribution
  | + realspace contribution) of the electrostatic potential after
  | s.c.f. convergence is                                          :             -1.124479698 eV

  Before relying on these values, please be sure to understand exactly which
  total energy value is referred to by a given number. Different objects may
  all carry the same name 'total energy'. Definitions:

  Total energy of the DFT / Hartree-Fock s.c.f. calculation:
  | Note that this energy does not include ANY quantities calculated after the
  | s.c.f. cycle, in particular not ANY RPA, MP2, etc. many-body perturbation terms.

  Final zero-broadening corrected energy:
  | For metallic systems only, a broadening of the occupation numbers at the Fermi
  | level can be extrapolated back to zero broadening by an electron-gas inspired
  | formula. For all systems that are not real metals, this value can be
  | meaningless and should be avoided.

------------------------------------------------------------------------------
  Methods described in the following list of references were used in this FHI-aims run.
  If you publish the results, please make sure to cite these reference if they apply.
  FHI-aims is an academic code, and for our developers (often, Ph.D. students
  and postdocs), scientific credit in the community is essential.
  Thank you for helping us!

  For any use of FHI-aims, please cite:

    Volker Blum, Ralf Gehrke, Felix Hanke, Paula Havu, Ville Havu,
    Xinguo Ren, Karsten Reuter, and Matthias Scheffler
    'Ab initio molecular simulations with numeric atom-centered orbitals'
    Computer Physics Communications 180, 2175-2196 (2009)
    http://dx.doi.org/10.1016/j.cpc.2009.06.022


  The provided symmetry information was generated with SPGlib:

    Atsushi Togo, Yusuke Seto, Dimitar Pashov
    SPGlib 1.7.3 obtained from http://spglib.sourceforge.net
    Copyright (C) 2008 Atsushi Togo


  The ELSI infrastructure was used in your run to solve the Kohn-Sham electronic structure.
  Please check out http://elsi-interchange.org to learn more.
  If scalability is important for your project, please acknowledge ELSI by citing:

    V. W-z. Yu, F. Corsetti, A. Garcia, W. P. Huhn, M. Jacquelin, W. Jia,
    B. Lange, L. Lin, J. Lu, W. Mi, A. Seifitokaldani, A. Vazquez-Mayagoitia,
    C. Yang, H. Yang, and V. Blum
    'ELSI: A unified software interface for Kohn-Sham electronic structure solvers'
    Computer Physics Communications 222, 267-285 (2018).
    http://dx.doi.org/10.1016/j.cpc.2017.09.007


  For the real-space grid partitioning and parallelization used in this calculation, please cite:

    Ville Havu, Volker Blum, Paula Havu, and Matthias Scheffler,
    'Efficient O(N) integration for all-electron electronic structure calculation'
    'using numerically tabulated basis functions'
    Journal of Computational Physics 228, 8367-8379 (2009).
    http://dx.doi.org/10.1016/j.jcp.2009.08.008

  Of course, there are many other important community references, e.g., those cited in the
  above references. Our list is limited to references that describe implementations in the
  FHI-aims code. The reason is purely practical (length of this list) - please credit others as well.

------------------------------------------------------------
          Leaving FHI-aims.
          Date     :  20211223, Time     :  011103.957

          Computational steps:
          | Number of self-consistency cycles          :           20
          | Number of SCF (re)initializations          :            1

          Detailed time accounting                     :  max(cpu_time)    wall_clock(cpu1)
          | Total time                                  :      221.626 s         221.734 s
          | Preparation time                            :        0.436 s           0.437 s
          | Boundary condition initalization            :        0.910 s           0.911 s
          | Grid partitioning                           :        2.570 s           2.571 s
          | Preloading free-atom quantities on grid     :        0.580 s           0.579 s
          | Free-atom superposition energy              :        0.053 s           0.054 s
          | Total time for integrations                 :       34.369 s          34.370 s
          | Total time for solution of K.-S. equations  :       48.431 s          48.413 s
          | Total time for density & force components   :       98.614 s          98.616 s
          | Total time for mixing & preconditioning     :        6.579 s           6.506 s
          | Total time for Hartree multipole update     :        0.203 s           0.200 s
          | Total time for Hartree multipole sum        :       21.064 s          21.067 s
          | Total time for total energy evaluation      :        0.018 s           0.024 s
          | Total time NSC force correction             :        1.662 s           1.662 s
          | Total time for scaled ZORA corrections      :        0.000 s           0.000 s
          | Total time for vdW correction               :        5.636 s           5.637 s

          Partial memory accounting:
          | Residual value for overall tracked memory usage across tasks:     0.000000 MB (should be 0.000000 MB)
          | Peak values for overall tracked memory usage:
          |   Minimum:      195.236 MB (on task  22 after allocating temp_ham_ovlp)
          |   Maximum:      197.533 MB (on task   0 after allocating temp_ham_ovlp)
          |   Average:      197.086 MB
          | Largest tracked array allocation:
          |   Minimum:       54.135 MB (overlap_matrix on task   0)
          |   Maximum:       54.135 MB (overlap_matrix on task   0)
          |   Average:       54.135 MB
          Note:  These values currently only include a subset of arrays which are explicitly tracked.
          The "true" memory usage will be greater.

          Have a nice day.
------------------------------------------------------------
